LAMMPS (12 Dec 2018)
# Define unit set and class of atomic model
units metal
atom_style atomic

# Periodic boundary conditions along all three dimensions
boundary p p p

# Create an FCC lattice with the lattice spacing supplied supplied by the user
# using a single conventional (orthogonal) unit cell
lattice fcc 3.0
Lattice spacing in x,y,z = 3 3 3
region box block 0 1 0 1 0 1 units lattice
create_box 1 box
Created orthogonal box = (0 0 0) to (3 3 3)
  1 by 1 by 1 MPI processor grid
create_atoms 1 box
Created 4 atoms
  Time spent = 0.000593901 secs
mass 1 39.948

# Specify which KIM Model to use, letting LAMMPS compute the virial/pressure
pair_style kim LAMMPSvirial ex_model_Ar_P_LJ
pair_coeff * * Ar

# Set what thermodynamic information to print to log
thermo_style custom step atoms xlo xhi ylo yhi zlo zhi pe press pxx pyy pzz pxy pxz pyz
thermo 10 # Print every 10 timesteps

# Set what information to write to dump file
dump id all custom 10 output/lammps.dump id type x y z xs ys zs fx fy fz
dump_modify id format line "%d %d %16.7f %16.7f %16.7f %16.7f %16.7f %16.7f %16.7f %16.7f %16.7f"

# Set boundary conditions to be stress-free
fix 1 all box/relax iso 0.0

# Prescribe the force on each basis atom to remain at [0,0,0].  This has the effect of
# keeping the fractional coordinates of the basis atoms fixed during the minimization,
# so that only the lattice constant is varied
fix constrain_symmetry all setforce 0.0 0.0 0.0

# Perform static minimization using the Polack-Ribiere conjugate gradient method.
# The first argument is a convergence tolerance for the energy, the second argument
# is a convergence tolerance for the forces, and the latter two arguments set the
# maximum number of allowed iterations and force/energy evaluations, respectively.
minimize 1e-16 1e-16 2000 100000
WARNING: Using 'neigh_modify every 1 delay 0 check yes' setting during minimization (../min.cpp:168)
Neighbor list info ...
  update every 1 steps, delay 0 steps, check yes
  max neighbors/atom: 2000, page size: 100000
  master list distance cutoff = 10.15
  ghost atom cutoff = 10.15
  binsize = 5.075, bins = 1 1 1
  1 neighbor lists, perpetual/occasional/extra = 1 0 0
  (1) pair kim, perpetual
      attributes: half, newton off
      pair build: half/bin/newtoff
      stencil: half/bin/3d/newtoff
      bin: standard
Per MPI rank memory allocation (min/avg/max) = 5.484 | 5.484 | 5.484 Mbytes
Step Atoms Xlo Xhi Ylo Yhi Zlo Zhi PotEng Press Pxx Pyy Pzz Pxy Pxz Pyz 
       0        4            0            3            0            3            0            3    269.98983     66452782     66452782     66452782     66452782 3.8927392e-09 4.3406365e-09 5.7033525e-09 
      10        4      -0.0015       3.0015      -0.0015       3.0015      -0.0015       3.0015    266.65233     65449691     65449691     65449691     65449691 4.7139916e-10 -1.776342e-09 -1.0639226e-09 
      20        4       -0.003        3.003       -0.003        3.003       -0.003        3.003    263.35861     64462633     64462633     64462633     64462633 5.331341e-09 -3.1975648e-08 -1.7883433e-08 
      30        4      -0.0045       3.0045      -0.0045       3.0045      -0.0045       3.0045    260.10805     63491337     63491337     63491337     63491337 -6.2744134e-10 -2.7667873e-09 -2.0430186e-09 
      40        4       -0.006        3.006       -0.006        3.006       -0.006        3.006    256.90007     62535537     62535537     62535537     62535537 -1.5692097e-09 -8.6710884e-09 -1.2407617e-08 
      50        4      -0.0075       3.0075      -0.0075       3.0075      -0.0075       3.0075    253.73405     61594971     61594971     61594971     61594971 -3.2237926e-09 -2.2506188e-08 -2.3541378e-08 
      60        4       -0.009        3.009       -0.009        3.009       -0.009        3.009    250.60942     60669383     60669383     60669383     60669383 1.4198131e-09 -7.3029605e-09 3.0270021e-09 
      70        4      -0.0105       3.0105      -0.0105       3.0105      -0.0105       3.0105    247.52559     59758520     59758520     59758520     59758520 2.7629156e-09 -2.5616944e-08 -2.4261881e-08 
      80        4       -0.012        3.012       -0.012        3.012       -0.012        3.012    244.48201     58862134     58862134     58862134     58862134 -1.6564163e-10 -1.7033057e-10 -2.2311714e-09 
      90        4      -0.0135       3.0135      -0.0135       3.0135      -0.0135       3.0135    241.47811     57979982     57979982     57979982     57979982 -1.4381834e-09 1.6235979e-09 -1.2432333e-09 
     100        4       -0.015        3.015       -0.015        3.015       -0.015        3.015    238.51333     57111824     57111824     57111824     57111824 -1.6589349e-09 -1.2470235e-08 -1.583946e-08 
     110        4      -0.0165       3.0165      -0.0165       3.0165      -0.0165       3.0165    235.58714     56257427     56257427     56257427     56257427 8.0996793e-09 3.4946261e-08 3.0807536e-08 
     120        4       -0.018        3.018       -0.018        3.018       -0.018        3.018    232.69899     55416559     55416559     55416559     55416559 3.0244391e-09 -8.3624688e-09 -1.079726e-08 
     130        4      -0.0195       3.0195      -0.0195       3.0195      -0.0195       3.0195    229.84837     54588994     54588994     54588994     54588994 2.314209e-09 8.5189533e-09 9.1582697e-09 
     140        4       -0.021        3.021       -0.021        3.021       -0.021        3.021    227.03475     53774508     53774508     53774508     53774508 -1.1821874e-09 -4.0855796e-10 -3.9234116e-09 
     150        4      -0.0225       3.0225      -0.0225       3.0225      -0.0225       3.0225    224.25762     52972885     52972885     52972885     52972885 3.4021944e-09 -1.9615543e-08 -2.780512e-08 
     160        4       -0.024        3.024       -0.024        3.024       -0.024        3.024    221.51647     52183907     52183907     52183907     52183907 -3.8927452e-09 -2.0780383e-09 -5.1392242e-09 
     170        4      -0.0255       3.0255      -0.0255       3.0255      -0.0255       3.0255    218.81082     51407366     51407366     51407366     51407366 -9.1807995e-10 1.2204514e-08 1.2503929e-08 
     180        4       -0.027        3.027       -0.027        3.027       -0.027        3.027    216.14016     50643052     50643052     50643052     50643052 -7.3800001e-10 -1.2176812e-08 -6.7115132e-09 
     190        4      -0.0285       3.0285      -0.0285       3.0285      -0.0285       3.0285    213.50401     49890763     49890763     49890763     49890763 1.8171732e-09 1.1050151e-08 1.2721686e-08 
     200        4        -0.03         3.03        -0.03         3.03        -0.03         3.03    210.90191     49150299     49150299     49150299     49150299 7.6725417e-09 1.3941534e-08 9.6510232e-09 
     210        4      -0.0315       3.0315      -0.0315       3.0315      -0.0315       3.0315    208.33337     48421463     48421463     48421463     48421463 6.594551e-09 4.1618366e-09 7.4409583e-11 
     220        4       -0.033        3.033       -0.033        3.033       -0.033        3.033    205.79795     47704061     47704061     47704061     47704061 9.2764289e-10 -8.6478703e-09 -8.478417e-09 
     230        4      -0.0345       3.0345      -0.0345       3.0345      -0.0345       3.0345    203.29518     46997905     46997905     46997905     46997905 -3.8633579e-09 -1.1130285e-08 -7.3068868e-09 
     240        4       -0.036        3.036       -0.036        3.036       -0.036        3.036    200.82462     46302808     46302808     46302808     46302808 3.8334968e-09 2.4972731e-09 4.7725551e-09 
     250        4      -0.0375       3.0375      -0.0375       3.0375      -0.0375       3.0375    198.38582     45618586     45618586     45618586     45618586 3.9251621e-09 8.1867754e-09 7.5777521e-09 
     260        4       -0.039        3.039       -0.039        3.039       -0.039        3.039    195.97835     44945060     44945060     44945060     44945060 -5.0560098e-09 -3.3784271e-08 -3.6098087e-08 
     270        4      -0.0405       3.0405      -0.0405       3.0405      -0.0405       3.0405    193.60179     44282052     44282052     44282052     44282052 3.4488887e-10 3.872309e-09 8.7039679e-10 
     280        4       -0.042        3.042       -0.042        3.042       -0.042        3.042     191.2557     43629390     43629390     43629390     43629390 3.5646471e-10 -5.968751e-09 -5.2820064e-09 
     290        4      -0.0435       3.0435      -0.0435       3.0435      -0.0435       3.0435    188.93967     42986903     42986903     42986903     42986903 -8.1238416e-10 -2.4530098e-10 -1.7192399e-09 
     300        4       -0.045        3.045       -0.045        3.045       -0.045        3.045     186.6533     42354422     42354422     42354422     42354422 -3.785572e-09 -2.1991508e-09 -2.3930177e-09 
     310        4      -0.0465       3.0465      -0.0465       3.0465      -0.0465       3.0465    184.39617     41731783     41731783     41731783     41731783 2.3176044e-09 1.0635338e-08 8.8012588e-09 
     320        4       -0.048        3.048       -0.048        3.048       -0.048        3.048    182.16789     41118824     41118824     41118824     41118824 -6.6566648e-10 -1.5074767e-08 -1.5101067e-08 
     330        4      -0.0495       3.0495      -0.0495       3.0495      -0.0495       3.0495    179.96807     40515387     40515387     40515387     40515387 3.3949763e-09 4.9012378e-09 5.7729815e-09 
     340        4       -0.051        3.051       -0.051        3.051       -0.051        3.051    177.79632     39921313     39921313     39921313     39921313 -1.233802e-09 3.8236475e-09 4.7378089e-09 
     350        4      -0.0525       3.0525      -0.0525       3.0525      -0.0525       3.0525    175.65225     39336451     39336451     39336451     39336451 1.2292546e-09 -1.2533162e-08 -1.5133235e-08 
     360        4       -0.054        3.054       -0.054        3.054       -0.054        3.054     173.5355     38760649     38760649     38760649     38760649 -4.1724621e-09 -2.3573846e-10 -4.1147147e-09 
     370        4      -0.0555       3.0555      -0.0555       3.0555      -0.0555       3.0555    171.44568     38193758     38193758     38193758     38193758 -3.4104818e-09 3.3976843e-09 1.6935811e-09 
     380        4       -0.057        3.057       -0.057        3.057       -0.057        3.057    169.38245     37635633     37635633     37635633     37635633 1.8940146e-09 6.0115001e-09 6.3077882e-09 
     390        4      -0.0585       3.0585      -0.0585       3.0585      -0.0585       3.0585    167.34543     37086131     37086131     37086131     37086131 3.8693259e-09 7.4462047e-10 7.628268e-10 
     400        4        -0.06         3.06        -0.06         3.06        -0.06         3.06    165.33427     36545110     36545110     36545110     36545110 3.0829279e-09 9.8641933e-09 1.0100755e-08 
     410        4      -0.0615       3.0615      -0.0615       3.0615      -0.0615       3.0615    163.34862     36012433     36012433     36012433     36012433 9.4360786e-10 -5.9910253e-10 1.0190721e-10 
     420        4       -0.063        3.063       -0.063        3.063       -0.063        3.063    161.38814     35487962     35487962     35487962     35487962 -2.8934379e-10 7.2225113e-10 3.1537674e-10 
     430        4      -0.0645       3.0645      -0.0645       3.0645      -0.0645       3.0645    159.45249     34971566     34971566     34971566     34971566 1.4175397e-09 3.4094176e-09 2.1476583e-10 
     440        4       -0.066        3.066       -0.066        3.066       -0.066        3.066    157.54133     34463112     34463112     34463112     34463112 -5.3011561e-10 -9.8935446e-09 -9.4889955e-09 
     450        4      -0.0675       3.0675      -0.0675       3.0675      -0.0675       3.0675    155.65433     33962471     33962471     33962471     33962471 -1.0243421e-09 -1.0515114e-08 -1.3049362e-08 
     460        4       -0.069        3.069       -0.069        3.069       -0.069        3.069    153.79117     33469516     33469516     33469516     33469516 -4.0744209e-09 -1.0938501e-08 -1.2798554e-08 
     470        4      -0.0705       3.0705      -0.0705       3.0705      -0.0705       3.0705    151.95153     32984122     32984122     32984122     32984122 1.0672117e-09 8.2075987e-09 8.809431e-09 
     480        4       -0.072        3.072       -0.072        3.072       -0.072        3.072     150.1351     32506168     32506168     32506168     32506168 6.8477804e-10 -3.9291382e-09 -3.268951e-09 
     490        4      -0.0735       3.0735      -0.0735       3.0735      -0.0735       3.0735    148.34155     32035532     32035532     32035532     32035532 6.3776786e-10 1.1895416e-08 1.0416688e-08 
     500        4       -0.075        3.075       -0.075        3.075       -0.075        3.075    146.57059     31572096     31572096     31572096     31572096 1.8711455e-09 5.5443425e-09 3.7250083e-09 
     510        4      -0.0765       3.0765      -0.0765       3.0765      -0.0765       3.0765     144.8219     31115743     31115743     31115743     31115743 7.2077989e-10 -3.4861167e-10 -2.5381084e-09 
     520        4       -0.078        3.078       -0.078        3.078       -0.078        3.078     143.0952     30666360     30666360     30666360     30666360 5.0523745e-09 2.3197897e-09 2.7008994e-09 
     530        4      -0.0795       3.0795      -0.0795       3.0795      -0.0795       3.0795    141.39019     30223834     30223834     30223834     30223834 4.0999582e-10 -6.2489851e-09 -6.4715694e-09 
     540        4       -0.081        3.081       -0.081        3.081       -0.081        3.081    139.70658     29788053     29788053     29788053     29788053 9.5353058e-11 6.0561742e-09 9.4885634e-09 
     550        4      -0.0825       3.0825      -0.0825       3.0825      -0.0825       3.0825    138.04408     29358910     29358910     29358910     29358910 -1.1864067e-09 6.7687096e-09 7.7631435e-09 
     560        4       -0.084        3.084       -0.084        3.084       -0.084        3.084    136.40242     28936298     28936298     28936298     28936298 -1.1466968e-09 3.9420425e-09 6.2565741e-09 
     570        4      -0.0855       3.0855      -0.0855       3.0855      -0.0855       3.0855     134.7813     28520111     28520111     28520111     28520111 -1.8402412e-09 3.3408227e-09 2.6658992e-09 
     580        4       -0.087        3.087       -0.087        3.087       -0.087        3.087    133.18047     28110247     28110247     28110247     28110247 1.9311561e-09 1.7738463e-09 9.1350502e-10 
     590        4      -0.0885       3.0885      -0.0885       3.0885      -0.0885       3.0885    131.59965     27706604     27706604     27706604     27706604 2.0636618e-11 -5.413657e-09 -7.102113e-09 
     600        4        -0.09         3.09        -0.09         3.09        -0.09         3.09    130.03857     27309082     27309082     27309082     27309082 -3.2329841e-10 -1.2378905e-09 -3.8991436e-09 
     610        4      -0.0915       3.0915      -0.0915       3.0915      -0.0915       3.0915    128.49698     26917583     26917583     26917583     26917583 -1.8219328e-09 -2.6811227e-09 -1.0156866e-09 
     620        4       -0.093        3.093       -0.093        3.093       -0.093        3.093    126.97461     26532010     26532010     26532010     26532010 4.5350886e-09 -2.0806364e-09 -2.9039671e-09 
     630        4      -0.0945       3.0945      -0.0945       3.0945      -0.0945       3.0945    125.47121     26152270     26152270     26152270     26152270 2.4289471e-09 7.9195618e-09 9.5546155e-09 
     640        4       -0.096        3.096       -0.096        3.096       -0.096        3.096    123.98653     25778268     25778268     25778268     25778268 -7.6332561e-10 -1.8472607e-10 -9.0012353e-10 
     650        4      -0.0975       3.0975      -0.0975       3.0975      -0.0975       3.0975    122.52031     25409913     25409913     25409913     25409913 1.7517493e-10 1.8806984e-09 4.0137918e-09 
     660        4       -0.099        3.099       -0.099        3.099       -0.099        3.099    121.07225     25050169     25050169     25050169     25050169 -4.5852136e-10 -2.8183429e-09 -1.8258267e-09 
     670        4      -0.1005       3.1005      -0.1005       3.1005      -0.1005       3.1005    119.64208     24692814     24692814     24692814     24692814 2.3713932e-09 -6.7114122e-10 -2.8951732e-09 
     680        4       -0.102        3.102       -0.102        3.102       -0.102        3.102    118.22965     24340841     24340841     24340841     24340841 1.4310021e-09 3.7714515e-09 2.8441375e-09 
     690        4      -0.1035       3.1035      -0.1035       3.1035      -0.1035       3.1035    116.83474     23994164     23994164     23994164     23994164 1.5935542e-09 3.4534706e-09 4.085424e-09 
     700        4       -0.105        3.105       -0.105        3.105       -0.105        3.105    115.45711     23652698     23652698     23652698     23652698 -2.9397559e-10 -3.2908261e-09 -7.0364868e-09 
     710        4      -0.1065       3.1065      -0.1065       3.1065      -0.1065       3.1065    114.09654     23316362     23316362     23316362     23316362 1.007204e-09 -1.14662e-09 -8.3657494e-10 
     720        4       -0.108        3.108       -0.108        3.108       -0.108        3.108     112.7528     22985073     22985073     22985073     22985073 -1.2358616e-10 -3.583829e-09 -3.6148293e-09 
     730        4      -0.1095       3.1095      -0.1095       3.1095      -0.1095       3.1095    111.42567     22658752     22658752     22658752     22658752 6.175692e-10 -3.5919598e-09 -2.6905997e-09 
     740        4       -0.111        3.111       -0.111        3.111       -0.111        3.111    110.11494     22337320     22337320     22337320     22337320 2.6614194e-09 1.0230834e-08 1.0200429e-08 
     750        4      -0.1125       3.1125      -0.1125       3.1125      -0.1125       3.1125    108.82038     22020699     22020699     22020699     22020699 -1.3827988e-10 -5.8951322e-09 -6.7889513e-09 
     760        4       -0.114        3.114       -0.114        3.114       -0.114        3.114    107.54179     21708814     21708814     21708814     21708814 7.4419551e-10 -3.7257572e-09 -3.0085741e-09 
     770        4      -0.1155       3.1155      -0.1155       3.1155      -0.1155       3.1155    106.27896     21401590     21401590     21401590     21401590 6.6590145e-10 2.3057482e-09 2.0620257e-09 
     780        4       -0.117        3.117       -0.117        3.117       -0.117        3.117    105.03168     21098953     21098953     21098953     21098953 5.8927149e-10 3.7523072e-09 3.3181418e-09 
     790        4      -0.1185       3.1185      -0.1185       3.1185      -0.1185       3.1185    103.79974     20800831     20800831     20800831     20800831 -1.3820143e-09 -6.7171134e-09 -8.3645441e-09 
     800        4        -0.12         3.12        -0.12         3.12        -0.12         3.12    102.58295     20507153     20507153     20507153     20507153 7.5319417e-10 -1.6213649e-09 -2.3753941e-09 
     810        4      -0.1215       3.1215      -0.1215       3.1215      -0.1215       3.1215    101.38111     20217849     20217849     20217849     20217849 5.2386826e-10 2.6383894e-10 2.3730556e-09 
     820        4       -0.123        3.123       -0.123        3.123       -0.123        3.123    100.19403     19932849     19932849     19932849     19932849 -1.1167117e-09 -1.4881363e-10 -7.1420891e-10 
     830        4      -0.1245       3.1245      -0.1245       3.1245      -0.1245       3.1245    99.021502     19652087     19652087     19652087     19652087 -1.3356667e-09 -2.6878348e-09 -3.5158661e-09 
     840        4       -0.126        3.126       -0.126        3.126       -0.126        3.126     97.86335     19375496     19375496     19375496     19375496 -1.236903e-09 6.3229981e-10 1.3383377e-09 
     850        4      -0.1275       3.1275      -0.1275       3.1275      -0.1275       3.1275    96.719383     19103010     19103010     19103010     19103010 3.441471e-10 -8.8490399e-10 -7.7323229e-10 
     860        4       -0.129        3.129       -0.129        3.129       -0.129        3.129    95.589417     18834565     18834565     18834565     18834565 -1.5093508e-09 -3.3198987e-09 -3.3027952e-09 
     870        4      -0.1305       3.1305      -0.1305       3.1305      -0.1305       3.1305     94.47327     18570098     18570098     18570098     18570098 2.8960931e-10 4.9578717e-09 5.3686485e-09 
     880        4       -0.132        3.132       -0.132        3.132       -0.132        3.132    93.370763     18309547     18309547     18309547     18309547 -1.0744354e-09 -3.8143493e-09 -3.8335791e-09 
     890        4      -0.1335       3.1335      -0.1335       3.1335      -0.1335       3.1335    92.281719     18052850     18052850     18052850     18052850 -5.3854378e-10 -2.2084029e-09 -3.0388216e-09 
     900        4       -0.135        3.135       -0.135        3.135       -0.135        3.135    91.205963     17799947     17799947     17799947     17799947 1.602927e-09 1.9872254e-09 1.6096512e-09 
     910        4      -0.1365       3.1365      -0.1365       3.1365      -0.1365       3.1365    90.143324     17550780     17550780     17550780     17550780 -9.700675e-10 -2.5085745e-09 -1.6956897e-09 
     920        4       -0.138        3.138       -0.138        3.138       -0.138        3.138    89.093632     17305289     17305289     17305289     17305289 1.551043e-09 -1.4976019e-10 3.350984e-10 
     930        4      -0.1395       3.1395      -0.1395       3.1395      -0.1395       3.1395    88.056719     17063417     17063417     17063417     17063417 -8.8462665e-10 -1.5291308e-09 -1.139878e-09 
     940        4       -0.141        3.141       -0.141        3.141       -0.141        3.141     87.03242     16825109     16825109     16825109     16825109 -1.749041e-10 4.5267317e-10 9.2844054e-10 
     950        4      -0.1425       3.1425      -0.1425       3.1425      -0.1425       3.1425    86.020574     16590308     16590308     16590308     16590308 6.5074761e-12 7.5481823e-10 5.7885666e-10 
     960        4       -0.144        3.144       -0.144        3.144       -0.144        3.144    85.021019     16358961     16358961     16358961     16358961 -6.3325691e-11 -3.7561246e-09 -4.0141358e-09 
     970        4      -0.1455       3.1455      -0.1455       3.1455      -0.1455       3.1455    84.033596     16131013     16131013     16131013     16131013 6.1074872e-10 3.6802628e-10 -2.9574563e-10 
     980        4       -0.147        3.147       -0.147        3.147       -0.147        3.147    83.058151     15906413     15906413     15906413     15906413 -1.4104307e-09 2.3352787e-10 1.4758046e-09 
     990        4      -0.1485       3.1485      -0.1485       3.1485      -0.1485       3.1485    82.094529     15685107     15685107     15685107     15685107 6.2809969e-10 -8.7806386e-11 -1.2648462e-10 
    1000        4        -0.15         3.15        -0.15         3.15        -0.15         3.15    81.142577     15467046     15467046     15467046     15467046 -7.9005699e-10 8.6810659e-11   -1.314e-09 
    1010        4      -0.1515       3.1515      -0.1515       3.1515      -0.1515       3.1515    80.202147     15252178     15252178     15252178     15252178 -1.5835686e-10 8.8234523e-10 1.1134511e-09 
    1020        4       -0.153        3.153       -0.153        3.153       -0.153        3.153     79.27309     15040455     15040455     15040455     15040455 1.1916801e-09 -2.5402408e-10 -1.0936064e-09 
    1030        4      -0.1545       3.1545      -0.1545       3.1545      -0.1545       3.1545     78.35526     14831827     14831827     14831827     14831827 3.1757578e-10 -1.4968509e-09 -1.5995556e-09 
    1040        4       -0.156        3.156       -0.156        3.156       -0.156        3.156    77.448515     14626248     14626248     14626248     14626248 1.3935622e-09 8.9626222e-12 3.9162523e-10 
    1050        4      -0.1575       3.1575      -0.1575       3.1575      -0.1575       3.1575    76.552712     14423670     14423670     14423670     14423670 3.6666388e-11 -1.653137e-09 -2.9930588e-10 
    1060        4       -0.159        3.159       -0.159        3.159       -0.159        3.159     75.66771     14224048     14224048     14224048     14224048 1.3443558e-09 3.2693709e-12 1.2248133e-10 
    1070        4      -0.1605       3.1605      -0.1605       3.1605      -0.1605       3.1605    74.793373     14027334     14027334     14027334     14027334 -8.9437572e-10 -3.2975725e-09 -2.3964125e-09 
    1080        4       -0.162        3.162       -0.162        3.162       -0.162        3.162    73.929564     13833485     13833485     13833485     13833485 -1.8424716e-10 3.8839707e-10 -1.5802782e-09 
    1090        4      -0.1635       3.1635      -0.1635       3.1635      -0.1635       3.1635    73.076149     13642457     13642457     13642457     13642457 1.5793681e-10 -2.3121809e-09 -2.0933823e-09 
    1100        4       -0.165        3.165       -0.165        3.165       -0.165        3.165    72.232943     13455106     13455106     13455106     13455106 2.4344356e-12 -2.5852471e-09 -2.5855493e-09 
    1110        4      -0.1665       3.1665      -0.1665       3.1665      -0.1665       3.1665    71.399864     13269583     13269583     13269583     13269583 5.2470095e-11 -1.0404927e-09 -1.6038894e-09 
    1120        4       -0.168        3.168       -0.168        3.168       -0.168        3.168    70.576787     13086753     13086753     13086753     13086753 3.1686121e-10 -2.8202304e-09 -3.4221469e-09 
    1130        4      -0.1695       3.1695      -0.1695       3.1695      -0.1695       3.1695    69.763585     12906575     12906575     12906575     12906575 -4.4354684e-10 1.9854861e-09 8.1874658e-11 
    1140        4       -0.171        3.171       -0.171        3.171       -0.171        3.171    68.960133     12729008     12729008     12729008     12729008 -1.5136761e-09 -1.4499409e-09 -7.3864952e-10 
    1150        4      -0.1725       3.1725      -0.1725       3.1725      -0.1725       3.1725    68.166306     12554012     12554012     12554012     12554012 -5.9546287e-10 2.6429097e-09 3.2902359e-09 
    1160        4       -0.174        3.174       -0.174        3.174       -0.174        3.174    67.381984     12381548     12381548     12381548     12381548 -7.1695379e-10 -6.1123995e-10 -7.8138955e-10 
    1170        4      -0.1755       3.1755      -0.1755       3.1755      -0.1755       3.1755    66.607044     12211577     12211577     12211577     12211577 -1.7420895e-11 5.119562e-10 8.9175134e-10 
    1180        4       -0.177        3.177       -0.177        3.177       -0.177        3.177    65.841369     12044062     12044062     12044062     12044062 -1.4989041e-09 -1.1143676e-09 -8.0876368e-10 
    1190        4      -0.1785       3.1785      -0.1785       3.1785      -0.1785       3.1785    65.084842     11878965     11878965     11878965     11878965 -1.2239212e-10 1.5156043e-10 5.1121798e-10 
    1200        4        -0.18         3.18        -0.18         3.18        -0.18         3.18    64.337347     11716248     11716248     11716248     11716248 -8.1271247e-10 -1.2247774e-09 -1.4668356e-09 
    1210        4      -0.1815       3.1815      -0.1815       3.1815      -0.1815       3.1815    63.598769     11555877     11555877     11555877     11555877 1.1554407e-10 3.4523697e-10 -4.1194739e-10 
    1220        4       -0.183        3.183       -0.183        3.183       -0.183        3.183    62.868996     11397815     11397815     11397815     11397815 1.7595898e-09 2.1528457e-09 1.2030296e-09 
    1230        4      -0.1845       3.1845      -0.1845       3.1845      -0.1845       3.1845    62.147917     11242027     11242027     11242027     11242027 -2.1929154e-10 2.7362495e-10 -5.5652617e-10 
    1240        4       -0.186        3.186       -0.186        3.186       -0.186        3.186    61.435423     11088479     11088479     11088479     11088479 4.3977965e-10 1.9529636e-09 2.0740513e-09 
    1250        4      -0.1875       3.1875      -0.1875       3.1875      -0.1875       3.1875    60.731405     10937136     10937136     10937136     10937136 2.6494982e-10 1.7201394e-09 2.0029974e-09 
    1260        4       -0.189        3.189       -0.189        3.189       -0.189        3.189    60.035757     10787966     10787966     10787966     10787966 2.0025416e-10 1.7683217e-09 1.4364545e-09 
    1270        4      -0.1905       3.1905      -0.1905       3.1905      -0.1905       3.1905    59.348374     10640935     10640935     10640935     10640935 -5.1786524e-10 9.7198893e-10 2.2468378e-09 
    1280        4       -0.192        3.192       -0.192        3.192       -0.192        3.192    58.669152     10496012     10496012     10496012     10496012 -1.1599254e-09 -4.1583023e-10 -9.1053173e-10 
    1290        4      -0.1935       3.1935      -0.1935       3.1935      -0.1935       3.1935    57.997988     10353163     10353163     10353163     10353163 9.9731705e-10 -1.2897005e-09 -1.3443156e-09 
    1300        4       -0.195        3.195       -0.195        3.195       -0.195        3.195    57.334781     10212359     10212359     10212359     10212359 -1.4031735e-09 1.8452571e-09 1.8648637e-09 
    1310        4      -0.1965       3.1965      -0.1965       3.1965      -0.1965       3.1965    56.679432     10073567     10073567     10073567     10073567 3.4811715e-10 -1.1323246e-09 -1.0445293e-09 
    1320        4       -0.198        3.198       -0.198        3.198       -0.198        3.198    56.031842    9936758.8    9936758.8    9936758.8    9936758.8 -1.7346464e-09 3.9901346e-10 1.0140256e-09 
    1330        4      -0.1995       3.1995      -0.1995       3.1995      -0.1995       3.1995    55.391915    9801903.1    9801903.1    9801903.1    9801903.1 -1.4482576e-10 -1.9682745e-09 -1.5058738e-09 
    1340        4       -0.201        3.201       -0.201        3.201       -0.201        3.201    54.759553      9668971      9668971      9668971      9668971 -1.4996545e-09 3.8020065e-10 1.4255911e-10 
    1350        4      -0.2025       3.2025      -0.2025       3.2025      -0.2025       3.2025    54.134664    9537933.4    9537933.4    9537933.4    9537933.4 -1.8428125e-10 -8.2218794e-10 -8.3788004e-10 
    1360        4       -0.204        3.204       -0.204        3.204       -0.204        3.204    53.517153      9408762      9408762      9408762      9408762 1.2138313e-10 7.148358e-10 1.8783468e-10 
    1370        4      -0.2055       3.2055      -0.2055       3.2055      -0.2055       3.2055    52.906929    9281428.7    9281428.7    9281428.7    9281428.7 3.7447112e-10 8.597118e-10 1.0034467e-09 
    1380        4       -0.207        3.207       -0.207        3.207       -0.207        3.207    52.303901      9155906      9155906      9155906      9155906 4.0910369e-10 2.1852896e-09 2.1645395e-09 
    1390        4      -0.2085       3.2085      -0.2085       3.2085      -0.2085       3.2085    51.707979    9032166.7    9032166.7    9032166.7    9032166.7 -1.7335669e-10 -7.8976165e-10 -7.0956692e-10 
    1400        4        -0.21         3.21        -0.21         3.21        -0.21         3.21    51.119074    8910184.1    8910184.1    8910184.1    8910184.1 2.1671262e-10 -2.2586775e-10 2.9665959e-10 
    1410        4      -0.2115       3.2115      -0.2115       3.2115      -0.2115       3.2115      50.5371      8789932      8789932      8789932      8789932 3.110944e-10 2.7982471e-09 2.5005792e-09 
    1420        4       -0.213        3.213       -0.213        3.213       -0.213        3.213    49.961971    8671384.5    8671384.5    8671384.5    8671384.5 -8.8246001e-10 3.9243088e-10 3.0487927e-10 
    1430        4      -0.2145       3.2145      -0.2145       3.2145      -0.2145       3.2145    49.393601    8554516.1    8554516.1    8554516.1    8554516.1 1.8299697e-10 -1.4286941e-10 -2.9085722e-10 
    1440        4       -0.216        3.216       -0.216        3.216       -0.216        3.216    48.831906    8439301.7    8439301.7    8439301.7    8439301.7 -9.0534468e-10 -2.5534853e-10 -3.0210564e-10 
    1450        4      -0.2175       3.2175      -0.2175       3.2175      -0.2175       3.2175    48.276805    8325716.7    8325716.7    8325716.7    8325716.7 1.9524344e-10  1.26425e-10 -1.097272e-10 
    1460        4       -0.219        3.219       -0.219        3.219       -0.219        3.219    47.728214    8213736.9    8213736.9    8213736.9    8213736.9 -4.927994e-10 -6.9195326e-10 -7.867153e-10 
    1470        4      -0.2205       3.2205      -0.2205       3.2205      -0.2205       3.2205    47.186055    8103338.3    8103338.3    8103338.3    8103338.3 1.2357125e-10 -1.4013134e-09 -6.5084511e-10 
    1480        4       -0.222        3.222       -0.222        3.222       -0.222        3.222    46.650246    7994497.4    7994497.4    7994497.4    7994497.4 9.6462178e-10 4.9801649e-11 -2.8191522e-10 
    1490        4      -0.2235       3.2235      -0.2235       3.2235      -0.2235       3.2235     46.12071      7887191      7887191      7887191      7887191 3.5672014e-10 5.8514585e-10 3.4731829e-10 
    1500        4       -0.225        3.225       -0.225        3.225       -0.225        3.225    45.597369    7781396.4    7781396.4    7781396.4    7781396.4 9.9395136e-10 2.3816054e-10 1.1196133e-10 
    1510        4      -0.2265       3.2265      -0.2265       3.2265      -0.2265       3.2265    45.080147    7677091.1    7677091.1    7677091.1    7677091.1 3.0252562e-10 1.0153913e-09 7.6106067e-10 
    1520        4       -0.228        3.228       -0.228        3.228       -0.228        3.228    44.568968    7574253.1    7574253.1    7574253.1    7574253.1 -2.1081442e-10 5.8815901e-10 1.1243337e-09 
    1530        4      -0.2295       3.2295      -0.2295       3.2295      -0.2295       3.2295    44.063758    7472860.5    7472860.5    7472860.5    7472860.5 -3.9942458e-11 1.1622988e-09 1.4364301e-09 
    1540        4       -0.231        3.231       -0.231        3.231       -0.231        3.231    43.564443    7372892.1    7372892.1    7372892.1    7372892.1 9.3370992e-10 2.3913222e-09 2.5817327e-09 
    1550        4      -0.2325       3.2325      -0.2325       3.2325      -0.2325       3.2325    43.070951    7274326.7    7274326.7    7274326.7    7274326.7 -2.2341138e-11 1.2452434e-09 8.8833841e-10 
    1560        4       -0.234        3.234       -0.234        3.234       -0.234        3.234     42.58321    7177143.6    7177143.6    7177143.6    7177143.6 -2.1304297e-10 -2.3953773e-10 -4.0471688e-10 
    1570        4      -0.2355       3.2355      -0.2355       3.2355      -0.2355       3.2355     42.10115    7081322.4    7081322.4    7081322.4    7081322.4 -2.9234783e-10 -5.403714e-10 -4.49972e-10 
    1580        4       -0.237        3.237       -0.237        3.237       -0.237        3.237    41.624701    6986842.9    6986842.9    6986842.9    6986842.9 -2.8512675e-10 -6.5249099e-10 -1.9551963e-10 
    1590        4      -0.2385       3.2385      -0.2385       3.2385      -0.2385       3.2385    41.153762      6894477      6894477      6894477      6894477 1.0090579e-10 9.4511576e-10 1.9020382e-10 
    1600        4        -0.24         3.24        -0.24         3.24        -0.24         3.24    40.688275      6802616      6802616      6802616      6802616 -9.7595889e-10 -2.0144873e-09 -1.3583843e-09 
    1610        4      -0.2415       3.2415      -0.2415       3.2415      -0.2415       3.2415    40.228197    6712038.4    6712038.4    6712038.4    6712038.4 3.1727354e-10 7.7167364e-10 6.4696703e-10 
    1620        4       -0.243        3.243       -0.243        3.243       -0.243        3.243    39.773459    6622725.4    6622725.4    6622725.4    6622725.4 2.8992556e-10 -5.4933212e-10 -3.1553879e-10 
    1630        4      -0.2445       3.2445      -0.2445       3.2445      -0.2445       3.2445    39.323997    6534658.2    6534658.2    6534658.2    6534658.2 9.679589e-11 6.749529e-10 1.1180894e-09 
    1640        4       -0.246        3.246       -0.246        3.246       -0.246        3.246    38.879747    6447818.8    6447818.8    6447818.8    6447818.8 3.2551414e-10 -6.1792205e-10 -5.6045048e-10 
    1650        4      -0.2475       3.2475      -0.2475       3.2475      -0.2475       3.2475    38.440645    6362188.9    6362188.9    6362188.9    6362188.9 -8.9268405e-11 -3.2991651e-10 -2.6724663e-10 
    1660        4       -0.249        3.249       -0.249        3.249       -0.249        3.249    38.006629      6277751      6277751      6277751      6277751 -6.0352336e-11 -8.1490924e-10 -7.470447e-10 
    1670        4      -0.2505       3.2505      -0.2505       3.2505      -0.2505       3.2505    37.577635    6194487.4    6194487.4    6194487.4    6194487.4 -3.4632385e-10 3.699879e-11 -3.150343e-10 
    1680        4       -0.252        3.252       -0.252        3.252       -0.252        3.252    37.153603    6112381.1    6112381.1    6112381.1    6112381.1 5.0945388e-10 2.602917e-10 6.1159853e-10 
    1690        4      -0.2535       3.2535      -0.2535       3.2535      -0.2535       3.2535    36.734473    6031415.2    6031415.2    6031415.2    6031415.2 -7.2636325e-10 1.2966729e-10 9.7750479e-11 
    1700        4       -0.255        3.255       -0.255        3.255       -0.255        3.255    36.320184    5951572.8    5951572.8    5951572.8    5951572.8 5.3360134e-11 8.7398222e-10 6.7097164e-10 
    1710        4      -0.2565       3.2565      -0.2565       3.2565      -0.2565       3.2565    35.910679    5872837.7    5872837.7    5872837.7    5872837.7 4.8597392e-10 -2.3495054e-10 -1.1889464e-10 
    1720        4       -0.258        3.258       -0.258        3.258       -0.258        3.258    35.505899    5795193.6    5795193.6    5795193.6    5795193.6 4.7714764e-10 -2.8804402e-10 -5.48864e-10 
    1730        4      -0.2595       3.2595      -0.2595       3.2595      -0.2595       3.2595    35.105786    5718624.7    5718624.7    5718624.7    5718624.7 -6.1399295e-10 -7.2709837e-10 -9.3690061e-10 
    1740        4       -0.261        3.261       -0.261        3.261       -0.261        3.261    34.710285    5643115.3    5643115.3    5643115.3    5643115.3 -2.4027771e-10 -6.0106709e-10 -5.1945194e-10 
    1750        4      -0.2625       3.2625      -0.2625       3.2625      -0.2625       3.2625    34.319338      5568650      5568650      5568650      5568650 2.5924311e-11 -1.1152079e-09 -1.6205953e-09 
    1760        4       -0.264        3.264       -0.264        3.264       -0.264        3.264    33.932892    5495213.5    5495213.5    5495213.5    5495213.5 -6.0839024e-10 -1.5005321e-09 -1.025764e-09 
    1770        4      -0.2655       3.2655      -0.2655       3.2655      -0.2655       3.2655    33.550891      5422791      5422791      5422791      5422791 -6.6634581e-10 -1.2293542e-11 1.2083407e-10 
    1780        4       -0.267        3.267       -0.267        3.267       -0.267        3.267    33.173282    5351367.6    5351367.6    5351367.6    5351367.6 3.4626087e-11 -8.1776784e-10 -7.1263557e-10 
    1790        4      -0.2685       3.2685      -0.2685       3.2685      -0.2685       3.2685    32.800012      5280929      5280929      5280929      5280929 -3.5775209e-10 -4.135562e-11  2.10613e-11 
    1800        4        -0.27         3.27        -0.27         3.27        -0.27         3.27    32.431028    5211460.7    5211460.7    5211460.7    5211460.7 5.2991282e-10 6.886196e-10 9.0876649e-10 
    1810        4      -0.2715       3.2715      -0.2715       3.2715      -0.2715       3.2715    32.066278    5142948.8    5142948.8    5142948.8    5142948.8 4.1920825e-10 4.9338477e-10 2.4219708e-10 
    1820        4       -0.273        3.273       -0.273        3.273       -0.273        3.273    31.705712    5075379.4    5075379.4    5075379.4    5075379.4 -2.7379674e-10 1.9716145e-11 -2.194076e-10 
    1830        4      -0.2745       3.2745      -0.2745       3.2745      -0.2745       3.2745     31.34928    5008738.8    5008738.8    5008738.8    5008738.8 -1.8281874e-10 2.6363003e-10 1.1942839e-10 
    1840        4       -0.276        3.276       -0.276        3.276       -0.276        3.276     30.99693    4943013.7    4943013.7    4943013.7    4943013.7 -4.3249303e-10 -3.2695584e-10 -1.2099048e-10 
    1850        4      -0.2775       3.2775      -0.2775       3.2775      -0.2775       3.2775    30.648615    4878190.8    4878190.8    4878190.8    4878190.8 6.7091519e-10 -4.5276283e-10 -3.3478775e-11 
    1860        4       -0.279        3.279       -0.279        3.279       -0.279        3.279    30.304286    4814257.1    4814257.1    4814257.1    4814257.1 -2.0683704e-10 -6.6665948e-10 -1.4859033e-10 
    1870        4      -0.2805       3.2805      -0.2805       3.2805      -0.2805       3.2805    29.963895    4751199.7    4751199.7    4751199.7    4751199.7 -4.2551998e-11 -6.9723312e-10 -5.744417e-10 
    1880        4       -0.282        3.282       -0.282        3.282       -0.282        3.282    29.627394    4689006.1    4689006.1    4689006.1    4689006.1 -2.9661121e-10 -1.1375845e-09 -7.4341884e-10 
    1890        4      -0.2835       3.2835      -0.2835       3.2835      -0.2835       3.2835    29.294737    4627663.7    4627663.7    4627663.7    4627663.7 -1.9310772e-10 -1.5822611e-10 -1.3947285e-11 
    1900        4       -0.285        3.285       -0.285        3.285       -0.285        3.285    28.965878    4567160.4    4567160.4    4567160.4    4567160.4 1.511379e-10 5.7973071e-10 4.6395351e-10 
    1910        4      -0.2865       3.2865      -0.2865       3.2865      -0.2865       3.2865    28.640772      4507484      4507484      4507484      4507484 -1.8581976e-10 1.0480044e-10 -8.3278069e-11 
    1920        4       -0.288        3.288       -0.288        3.288       -0.288        3.288    28.319373    4448622.7    4448622.7    4448622.7    4448622.7 -4.0755213e-10 -3.5944331e-10 -1.047171e-10 
    1930        4      -0.2895       3.2895      -0.2895       3.2895      -0.2895       3.2895    28.001637    4390564.8    4390564.8    4390564.8    4390564.8 -4.4815158e-10 6.5095474e-12 4.2581854e-11 
    1940        4       -0.291        3.291       -0.291        3.291       -0.291        3.291     27.68752    4333298.8    4333298.8    4333298.8    4333298.8 -1.9064677e-10 -1.7267852e-11 2.9624371e-10 
    1950        4      -0.2925       3.2925      -0.2925       3.2925      -0.2925       3.2925    27.376979    4276813.2    4276813.2    4276813.2    4276813.2 1.0250107e-10 2.0587917e-10 3.8134963e-10 
    1960        4       -0.294        3.294       -0.294        3.294       -0.294        3.294    27.069972      4221097      4221097      4221097      4221097  1.49629e-10 7.0632325e-10 7.6753811e-10 
    1970        4      -0.2955       3.2955      -0.2955       3.2955      -0.2955       3.2955    26.766456    4166139.1    4166139.1    4166139.1    4166139.1 -2.4844227e-10 -3.462867e-10 -3.3736368e-10 
    1980        4       -0.297        3.297       -0.297        3.297       -0.297        3.297    26.466389    4111928.6    4111928.6    4111928.6    4111928.6 -3.5301283e-10 -9.1687225e-10 -7.0085605e-10 
    1990        4      -0.2985       3.2985      -0.2985       3.2985      -0.2985       3.2985    26.169732      4058455      4058455      4058455      4058455 6.6402965e-11 1.0319977e-10 -1.9718775e-11 
    2000        4         -0.3          3.3         -0.3          3.3         -0.3          3.3    25.876442    4005707.5    4005707.5    4005707.5    4005707.5 2.4315456e-11 -1.0216617e-12 4.6573162e-11 
Loop time of 0.521137 on 1 procs for 2000 steps with 4 atoms

99.0% CPU use with 1 MPI tasks x no OpenMP threads

Minimization stats:
  Stopping criterion = max iterations
  Energy initial, next-to-last, final = 
         269.989833174      25.9056201897      25.8764416053
  Force two-norm initial, final = 3359.6 291.619
  Force max component initial, final = 3359.6 291.619
  Final line search alpha, max atom move = 3.42522e-07 9.98859e-05
  Iterations, force evaluations = 2000 2000

MPI task timing breakdown:
Section |  min time  |  avg time  |  max time  |%varavg| %total
---------------------------------------------------------------
Pair    | 0.39961    | 0.39961    | 0.39961    |   0.0 | 76.68
Neigh   | 8.5115e-05 | 8.5115e-05 | 8.5115e-05 |   0.0 |  0.02
Comm    | 0.026315   | 0.026315   | 0.026315   |   0.0 |  5.05
Output  | 0.016193   | 0.016193   | 0.016193   |   0.0 |  3.11
Modify  | 0.00064921 | 0.00064921 | 0.00064921 |   0.0 |  0.12
Other   |            | 0.07829    |            |       | 15.02

Nlocal:    4 ave 4 max 4 min
Histogram: 1 0 0 0 0 0 0 0 0 0
Nghost:    1094 ave 1094 max 1094 min
Histogram: 1 0 0 0 0 0 0 0 0 0
Neighs:    1514 ave 1514 max 1514 min
Histogram: 1 0 0 0 0 0 0 0 0 0

Total # of neighbors = 1514
Ave neighs/atom = 378.5
Neighbor list builds = 1
Dangerous builds = 0

# Define auxiliary variables to contain cohesive energy and equilibrium lattice constant
variable poteng    equal "c_thermo_pe"
variable natoms    equal "count(all)"
variable ecohesive equal "-v_poteng/v_natoms"
variable pressure  equal "c_thermo_press"
variable a         equal "lx"

# Output cohesive energy and equilibrium lattice constant
print "Final pressure = ${pressure} bar"
Final pressure = 4005707.53622692 bar
print "Cohesive energy = ${ecohesive} eV/atom"
Cohesive energy = -6.46911040131582 eV/atom
print "Equilibrium lattice constant = ${a} angstrom"
Equilibrium lattice constant = 3.60000000000017 angstrom
Total wall time: 0:00:00
