ITEM: TIMESTEP
0
ITEM: NUMBER OF ATOMS
4
ITEM: BOX BOUNDS pp pp pp
0.0000000000000000e+00 2.2999999999999998e+00
0.0000000000000000e+00 2.2999999999999998e+00
0.0000000000000000e+00 2.2999999999999998e+00
ITEM: ATOMS id type x y z xs ys zs fx fy fz 
1 1        0.0000000        0.0000000        0.0000000        0.0000000        0.0000000        0.0000000        0.0000000        0.0000000        0.0000000 
2 1        1.1500000        1.1500000        0.0000000        0.5000000        0.5000000        0.0000000        0.0000000        0.0000000        0.0000000 
3 1        1.1500000        0.0000000        1.1500000        0.5000000        0.0000000        0.5000000        0.0000000        0.0000000        0.0000000 
4 1        0.0000000        1.1500000        1.1500000        0.0000000        0.5000000        0.5000000        0.0000000        0.0000000        0.0000000 
ITEM: TIMESTEP
10
ITEM: NUMBER OF ATOMS
4
ITEM: BOX BOUNDS pp pp pp
-1.1499999999999995e-03 2.3011500000000007e+00
-1.1499999999999995e-03 2.3011500000000007e+00
-1.1499999999999995e-03 2.3011500000000007e+00
ITEM: ATOMS id type x y z xs ys zs fx fy fz 
1 1       -0.0011500       -0.0011500       -0.0011500        0.0000000        0.0000000        0.0000000        0.0000000        0.0000000        0.0000000 
2 1        1.1500000        1.1500000       -0.0011500        0.5000000        0.5000000        0.0000000        0.0000000        0.0000000        0.0000000 
3 1        1.1500000       -0.0011500        1.1500000        0.5000000        0.0000000        0.5000000        0.0000000        0.0000000        0.0000000 
4 1       -0.0011500        1.1500000        1.1500000        0.0000000        0.5000000        0.5000000        0.0000000        0.0000000        0.0000000 
ITEM: TIMESTEP
20
ITEM: NUMBER OF ATOMS
4
ITEM: BOX BOUNDS pp pp pp
-2.2999999999999991e-03 2.3023000000000016e+00
-2.2999999999999991e-03 2.3023000000000016e+00
-2.2999999999999991e-03 2.3023000000000016e+00
ITEM: ATOMS id type x y z xs ys zs fx fy fz 
1 1       -0.0023000       -0.0023000       -0.0023000        0.0000000        0.0000000        0.0000000        0.0000000        0.0000000        0.0000000 
2 1        1.1500000        1.1500000       -0.0023000        0.5000000        0.5000000        0.0000000        0.0000000        0.0000000        0.0000000 
3 1        1.1500000       -0.0023000        1.1500000        0.5000000        0.0000000        0.5000000        0.0000000        0.0000000        0.0000000 
4 1       -0.0023000        1.1500000        1.1500000        0.0000000        0.5000000        0.5000000        0.0000000        0.0000000        0.0000000 
ITEM: TIMESTEP
30
ITEM: NUMBER OF ATOMS
4
ITEM: BOX BOUNDS pp pp pp
-3.4499999999999999e-03 2.3034500000000024e+00
-3.4499999999999999e-03 2.3034500000000024e+00
-3.4499999999999999e-03 2.3034500000000024e+00
ITEM: ATOMS id type x y z xs ys zs fx fy fz 
1 1       -0.0034500       -0.0034500       -0.0034500        0.0000000        0.0000000        0.0000000        0.0000000        0.0000000        0.0000000 
2 1        1.1500000        1.1500000       -0.0034500        0.5000000        0.5000000        0.0000000        0.0000000        0.0000000        0.0000000 
3 1        1.1500000       -0.0034500        1.1500000        0.5000000        0.0000000        0.5000000        0.0000000        0.0000000        0.0000000 
4 1       -0.0034500        1.1500000        1.1500000        0.0000000        0.5000000        0.5000000        0.0000000        0.0000000        0.0000000 
ITEM: TIMESTEP
40
ITEM: NUMBER OF ATOMS
4
ITEM: BOX BOUNDS pp pp pp
-4.5999999999999965e-03 2.3046000000000033e+00
-4.5999999999999965e-03 2.3046000000000033e+00
-4.5999999999999965e-03 2.3046000000000033e+00
ITEM: ATOMS id type x y z xs ys zs fx fy fz 
1 1       -0.0046000       -0.0046000       -0.0046000        0.0000000        0.0000000        0.0000000        0.0000000        0.0000000        0.0000000 
2 1        1.1500000        1.1500000       -0.0046000        0.5000000        0.5000000        0.0000000        0.0000000        0.0000000        0.0000000 
3 1        1.1500000       -0.0046000        1.1500000        0.5000000        0.0000000        0.5000000        0.0000000        0.0000000        0.0000000 
4 1       -0.0046000        1.1500000        1.1500000        0.0000000        0.5000000        0.5000000        0.0000000        0.0000000        0.0000000 
ITEM: TIMESTEP
50
ITEM: NUMBER OF ATOMS
4
ITEM: BOX BOUNDS pp pp pp
-5.7499999999999930e-03 2.3057500000000042e+00
-5.7499999999999930e-03 2.3057500000000042e+00
-5.7499999999999930e-03 2.3057500000000042e+00
ITEM: ATOMS id type x y z xs ys zs fx fy fz 
1 1       -0.0057500       -0.0057500       -0.0057500        0.0000000        0.0000000        0.0000000        0.0000000        0.0000000        0.0000000 
2 1        1.1500000        1.1500000       -0.0057500        0.5000000        0.5000000        0.0000000        0.0000000        0.0000000        0.0000000 
3 1        1.1500000       -0.0057500        1.1500000        0.5000000        0.0000000        0.5000000        0.0000000        0.0000000        0.0000000 
4 1       -0.0057500        1.1500000        1.1500000        0.0000000        0.5000000        0.5000000        0.0000000        0.0000000        0.0000000 
ITEM: TIMESTEP
60
ITEM: NUMBER OF ATOMS
4
ITEM: BOX BOUNDS pp pp pp
-6.8999999999999895e-03 2.3069000000000051e+00
-6.8999999999999895e-03 2.3069000000000051e+00
-6.8999999999999895e-03 2.3069000000000051e+00
ITEM: ATOMS id type x y z xs ys zs fx fy fz 
1 1       -0.0069000       -0.0069000       -0.0069000        0.0000000        0.0000000        0.0000000        0.0000000        0.0000000        0.0000000 
2 1        1.1500000        1.1500000       -0.0069000        0.5000000        0.5000000        0.0000000        0.0000000        0.0000000        0.0000000 
3 1        1.1500000       -0.0069000        1.1500000        0.5000000        0.0000000        0.5000000        0.0000000        0.0000000        0.0000000 
4 1       -0.0069000        1.1500000        1.1500000        0.0000000        0.5000000        0.5000000        0.0000000        0.0000000        0.0000000 
ITEM: TIMESTEP
70
ITEM: NUMBER OF ATOMS
4
ITEM: BOX BOUNDS pp pp pp
-8.0499999999999877e-03 2.3080500000000059e+00
-8.0499999999999877e-03 2.3080500000000059e+00
-8.0499999999999877e-03 2.3080500000000059e+00
ITEM: ATOMS id type x y z xs ys zs fx fy fz 
1 1       -0.0080500       -0.0080500       -0.0080500        0.0000000        0.0000000        0.0000000        0.0000000        0.0000000        0.0000000 
2 1        1.1500000        1.1500000       -0.0080500        0.5000000        0.5000000        0.0000000        0.0000000        0.0000000        0.0000000 
3 1        1.1500000       -0.0080500        1.1500000        0.5000000        0.0000000        0.5000000        0.0000000        0.0000000        0.0000000 
4 1       -0.0080500        1.1500000        1.1500000        0.0000000        0.5000000        0.5000000        0.0000000        0.0000000        0.0000000 
ITEM: TIMESTEP
80
ITEM: NUMBER OF ATOMS
4
ITEM: BOX BOUNDS pp pp pp
-9.1999999999999912e-03 2.3092000000000068e+00
-9.1999999999999912e-03 2.3092000000000068e+00
-9.1999999999999912e-03 2.3092000000000068e+00
ITEM: ATOMS id type x y z xs ys zs fx fy fz 
1 1       -0.0092000       -0.0092000       -0.0092000        0.0000000        0.0000000        0.0000000        0.0000000        0.0000000        0.0000000 
2 1        1.1500000        1.1500000       -0.0092000        0.5000000        0.5000000        0.0000000        0.0000000        0.0000000        0.0000000 
3 1        1.1500000       -0.0092000        1.1500000        0.5000000        0.0000000        0.5000000        0.0000000        0.0000000        0.0000000 
4 1       -0.0092000        1.1500000        1.1500000        0.0000000        0.5000000        0.5000000        0.0000000        0.0000000        0.0000000 
ITEM: TIMESTEP
90
ITEM: NUMBER OF ATOMS
4
ITEM: BOX BOUNDS pp pp pp
-1.0349999999999982e-02 2.3103500000000077e+00
-1.0349999999999982e-02 2.3103500000000077e+00
-1.0349999999999982e-02 2.3103500000000077e+00
ITEM: ATOMS id type x y z xs ys zs fx fy fz 
1 1       -0.0103500       -0.0103500       -0.0103500        0.0000000        0.0000000        0.0000000        0.0000000        0.0000000        0.0000000 
2 1        1.1500000        1.1500000       -0.0103500        0.5000000        0.5000000        0.0000000        0.0000000        0.0000000        0.0000000 
3 1        1.1500000       -0.0103500        1.1500000        0.5000000        0.0000000        0.5000000        0.0000000        0.0000000        0.0000000 
4 1       -0.0103500        1.1500000        1.1500000        0.0000000        0.5000000        0.5000000        0.0000000        0.0000000        0.0000000 
ITEM: TIMESTEP
100
ITEM: NUMBER OF ATOMS
4
ITEM: BOX BOUNDS pp pp pp
-1.1499999999999970e-02 2.3115000000000085e+00
-1.1499999999999970e-02 2.3115000000000085e+00
-1.1499999999999970e-02 2.3115000000000085e+00
ITEM: ATOMS id type x y z xs ys zs fx fy fz 
1 1       -0.0115000       -0.0115000       -0.0115000        0.0000000        0.0000000        0.0000000        0.0000000        0.0000000        0.0000000 
2 1        1.1500000        1.1500000       -0.0115000        0.5000000        0.5000000        0.0000000        0.0000000        0.0000000        0.0000000 
3 1        1.1500000       -0.0115000        1.1500000        0.5000000        0.0000000        0.5000000        0.0000000        0.0000000        0.0000000 
4 1       -0.0115000        1.1500000        1.1500000        0.0000000        0.5000000        0.5000000        0.0000000        0.0000000        0.0000000 
ITEM: TIMESTEP
110
ITEM: NUMBER OF ATOMS
4
ITEM: BOX BOUNDS pp pp pp
-1.2649999999999958e-02 2.3126500000000094e+00
-1.2649999999999958e-02 2.3126500000000094e+00
-1.2649999999999958e-02 2.3126500000000094e+00
ITEM: ATOMS id type x y z xs ys zs fx fy fz 
1 1       -0.0126500       -0.0126500       -0.0126500        0.0000000        0.0000000        0.0000000        0.0000000        0.0000000        0.0000000 
2 1        1.1500000        1.1500000       -0.0126500        0.5000000        0.5000000        0.0000000        0.0000000        0.0000000        0.0000000 
3 1        1.1500000       -0.0126500        1.1500000        0.5000000        0.0000000        0.5000000        0.0000000        0.0000000        0.0000000 
4 1       -0.0126500        1.1500000        1.1500000        0.0000000        0.5000000        0.5000000        0.0000000        0.0000000        0.0000000 
ITEM: TIMESTEP
120
ITEM: NUMBER OF ATOMS
4
ITEM: BOX BOUNDS pp pp pp
-1.3799999999999946e-02 2.3138000000000103e+00
-1.3799999999999946e-02 2.3138000000000103e+00
-1.3799999999999946e-02 2.3138000000000103e+00
ITEM: ATOMS id type x y z xs ys zs fx fy fz 
1 1       -0.0138000       -0.0138000       -0.0138000        0.0000000        0.0000000        0.0000000        0.0000000        0.0000000        0.0000000 
2 1        1.1500000        1.1500000       -0.0138000        0.5000000        0.5000000        0.0000000        0.0000000        0.0000000        0.0000000 
3 1        1.1500000       -0.0138000        1.1500000        0.5000000        0.0000000        0.5000000        0.0000000        0.0000000        0.0000000 
4 1       -0.0138000        1.1500000        1.1500000        0.0000000        0.5000000        0.5000000        0.0000000        0.0000000        0.0000000 
ITEM: TIMESTEP
130
ITEM: NUMBER OF ATOMS
4
ITEM: BOX BOUNDS pp pp pp
-1.4949999999999934e-02 2.3149500000000112e+00
-1.4949999999999934e-02 2.3149500000000112e+00
-1.4949999999999934e-02 2.3149500000000112e+00
ITEM: ATOMS id type x y z xs ys zs fx fy fz 
1 1       -0.0149500       -0.0149500       -0.0149500        0.0000000        0.0000000        0.0000000        0.0000000        0.0000000        0.0000000 
2 1        1.1500000        1.1500000       -0.0149500        0.5000000        0.5000000        0.0000000        0.0000000        0.0000000        0.0000000 
3 1        1.1500000       -0.0149500        1.1500000        0.5000000        0.0000000        0.5000000        0.0000000        0.0000000        0.0000000 
4 1       -0.0149500        1.1500000        1.1500000        0.0000000        0.5000000        0.5000000        0.0000000        0.0000000        0.0000000 
ITEM: TIMESTEP
140
ITEM: NUMBER OF ATOMS
4
ITEM: BOX BOUNDS pp pp pp
-1.6099999999999930e-02 2.3161000000000120e+00
-1.6099999999999930e-02 2.3161000000000120e+00
-1.6099999999999930e-02 2.3161000000000120e+00
ITEM: ATOMS id type x y z xs ys zs fx fy fz 
1 1       -0.0161000       -0.0161000       -0.0161000        0.0000000        0.0000000        0.0000000        0.0000000        0.0000000        0.0000000 
2 1        1.1500000        1.1500000       -0.0161000        0.5000000        0.5000000        0.0000000        0.0000000        0.0000000        0.0000000 
3 1        1.1500000       -0.0161000        1.1500000        0.5000000        0.0000000        0.5000000        0.0000000        0.0000000        0.0000000 
4 1       -0.0161000        1.1500000        1.1500000        0.0000000        0.5000000        0.5000000        0.0000000        0.0000000        0.0000000 
ITEM: TIMESTEP
150
ITEM: NUMBER OF ATOMS
4
ITEM: BOX BOUNDS pp pp pp
-1.7249999999999936e-02 2.3172500000000129e+00
-1.7249999999999936e-02 2.3172500000000129e+00
-1.7249999999999936e-02 2.3172500000000129e+00
ITEM: ATOMS id type x y z xs ys zs fx fy fz 
1 1       -0.0172500       -0.0172500       -0.0172500        0.0000000        0.0000000        0.0000000        0.0000000        0.0000000        0.0000000 
2 1        1.1500000        1.1500000       -0.0172500        0.5000000        0.5000000        0.0000000        0.0000000        0.0000000        0.0000000 
3 1        1.1500000       -0.0172500        1.1500000        0.5000000        0.0000000        0.5000000        0.0000000        0.0000000        0.0000000 
4 1       -0.0172500        1.1500000        1.1500000        0.0000000        0.5000000        0.5000000        0.0000000        0.0000000        0.0000000 
ITEM: TIMESTEP
160
ITEM: NUMBER OF ATOMS
4
ITEM: BOX BOUNDS pp pp pp
-1.8399999999999941e-02 2.3184000000000138e+00
-1.8399999999999941e-02 2.3184000000000138e+00
-1.8399999999999941e-02 2.3184000000000138e+00
ITEM: ATOMS id type x y z xs ys zs fx fy fz 
1 1       -0.0184000       -0.0184000       -0.0184000        0.0000000        0.0000000        0.0000000        0.0000000        0.0000000        0.0000000 
2 1        1.1500000        1.1500000       -0.0184000        0.5000000        0.5000000        0.0000000        0.0000000        0.0000000        0.0000000 
3 1        1.1500000       -0.0184000        1.1500000        0.5000000        0.0000000        0.5000000        0.0000000        0.0000000        0.0000000 
4 1       -0.0184000        1.1500000        1.1500000        0.0000000        0.5000000        0.5000000        0.0000000        0.0000000        0.0000000 
ITEM: TIMESTEP
170
ITEM: NUMBER OF ATOMS
4
ITEM: BOX BOUNDS pp pp pp
-1.9549999999999946e-02 2.3195500000000147e+00
-1.9549999999999946e-02 2.3195500000000147e+00
-1.9549999999999946e-02 2.3195500000000147e+00
ITEM: ATOMS id type x y z xs ys zs fx fy fz 
1 1       -0.0195500       -0.0195500       -0.0195500        0.0000000        0.0000000        0.0000000        0.0000000        0.0000000        0.0000000 
2 1        1.1500000        1.1500000       -0.0195500        0.5000000        0.5000000        0.0000000        0.0000000        0.0000000        0.0000000 
3 1        1.1500000       -0.0195500        1.1500000        0.5000000        0.0000000        0.5000000        0.0000000        0.0000000        0.0000000 
4 1       -0.0195500        1.1500000        1.1500000        0.0000000        0.5000000        0.5000000        0.0000000        0.0000000        0.0000000 
ITEM: TIMESTEP
180
ITEM: NUMBER OF ATOMS
4
ITEM: BOX BOUNDS pp pp pp
-2.0699999999999951e-02 2.3207000000000155e+00
-2.0699999999999951e-02 2.3207000000000155e+00
-2.0699999999999951e-02 2.3207000000000155e+00
ITEM: ATOMS id type x y z xs ys zs fx fy fz 
1 1       -0.0207000       -0.0207000       -0.0207000        0.0000000        0.0000000        0.0000000        0.0000000        0.0000000        0.0000000 
2 1        1.1500000        1.1500000       -0.0207000        0.5000000        0.5000000        0.0000000        0.0000000        0.0000000        0.0000000 
3 1        1.1500000       -0.0207000        1.1500000        0.5000000        0.0000000        0.5000000        0.0000000        0.0000000        0.0000000 
4 1       -0.0207000        1.1500000        1.1500000        0.0000000        0.5000000        0.5000000        0.0000000        0.0000000        0.0000000 
ITEM: TIMESTEP
190
ITEM: NUMBER OF ATOMS
4
ITEM: BOX BOUNDS pp pp pp
-2.1849999999999956e-02 2.3218500000000164e+00
-2.1849999999999956e-02 2.3218500000000164e+00
-2.1849999999999956e-02 2.3218500000000164e+00
ITEM: ATOMS id type x y z xs ys zs fx fy fz 
1 1       -0.0218500       -0.0218500       -0.0218500        0.0000000        0.0000000        0.0000000        0.0000000        0.0000000        0.0000000 
2 1        1.1500000        1.1500000       -0.0218500        0.5000000        0.5000000        0.0000000        0.0000000        0.0000000        0.0000000 
3 1        1.1500000       -0.0218500        1.1500000        0.5000000        0.0000000        0.5000000        0.0000000        0.0000000        0.0000000 
4 1       -0.0218500        1.1500000        1.1500000        0.0000000        0.5000000        0.5000000        0.0000000        0.0000000        0.0000000 
ITEM: TIMESTEP
200
ITEM: NUMBER OF ATOMS
4
ITEM: BOX BOUNDS pp pp pp
-2.2999999999999961e-02 2.3230000000000173e+00
-2.2999999999999961e-02 2.3230000000000173e+00
-2.2999999999999961e-02 2.3230000000000173e+00
ITEM: ATOMS id type x y z xs ys zs fx fy fz 
1 1       -0.0230000       -0.0230000       -0.0230000        0.0000000        0.0000000        0.0000000        0.0000000        0.0000000        0.0000000 
2 1        1.1500000        1.1500000       -0.0230000        0.5000000        0.5000000        0.0000000        0.0000000        0.0000000        0.0000000 
3 1        1.1500000       -0.0230000        1.1500000        0.5000000        0.0000000        0.5000000        0.0000000        0.0000000        0.0000000 
4 1       -0.0230000        1.1500000        1.1500000        0.0000000        0.5000000        0.5000000        0.0000000        0.0000000        0.0000000 
ITEM: TIMESTEP
210
ITEM: NUMBER OF ATOMS
4
ITEM: BOX BOUNDS pp pp pp
-2.4149999999999967e-02 2.3241500000000181e+00
-2.4149999999999967e-02 2.3241500000000181e+00
-2.4149999999999967e-02 2.3241500000000181e+00
ITEM: ATOMS id type x y z xs ys zs fx fy fz 
1 1       -0.0241500       -0.0241500       -0.0241500        0.0000000        0.0000000        0.0000000        0.0000000        0.0000000        0.0000000 
2 1        1.1500000        1.1500000       -0.0241500        0.5000000        0.5000000        0.0000000        0.0000000        0.0000000        0.0000000 
3 1        1.1500000       -0.0241500        1.1500000        0.5000000        0.0000000        0.5000000        0.0000000        0.0000000        0.0000000 
4 1       -0.0241500        1.1500000        1.1500000        0.0000000        0.5000000        0.5000000        0.0000000        0.0000000        0.0000000 
ITEM: TIMESTEP
220
ITEM: NUMBER OF ATOMS
4
ITEM: BOX BOUNDS pp pp pp
-2.5299999999999972e-02 2.3253000000000190e+00
-2.5299999999999972e-02 2.3253000000000190e+00
-2.5299999999999972e-02 2.3253000000000190e+00
ITEM: ATOMS id type x y z xs ys zs fx fy fz 
1 1       -0.0253000       -0.0253000       -0.0253000        0.0000000        0.0000000        0.0000000        0.0000000        0.0000000        0.0000000 
2 1        1.1500000        1.1500000       -0.0253000        0.5000000        0.5000000        0.0000000        0.0000000        0.0000000        0.0000000 
3 1        1.1500000       -0.0253000        1.1500000        0.5000000        0.0000000        0.5000000        0.0000000        0.0000000        0.0000000 
4 1       -0.0253000        1.1500000        1.1500000        0.0000000        0.5000000        0.5000000        0.0000000        0.0000000        0.0000000 
ITEM: TIMESTEP
230
ITEM: NUMBER OF ATOMS
4
ITEM: BOX BOUNDS pp pp pp
-2.6449999999999977e-02 2.3264500000000199e+00
-2.6449999999999977e-02 2.3264500000000199e+00
-2.6449999999999977e-02 2.3264500000000199e+00
ITEM: ATOMS id type x y z xs ys zs fx fy fz 
1 1       -0.0264500       -0.0264500       -0.0264500        0.0000000        0.0000000        0.0000000        0.0000000        0.0000000        0.0000000 
2 1        1.1500000        1.1500000       -0.0264500        0.5000000        0.5000000        0.0000000        0.0000000        0.0000000        0.0000000 
3 1        1.1500000       -0.0264500        1.1500000        0.5000000        0.0000000        0.5000000        0.0000000        0.0000000        0.0000000 
4 1       -0.0264500        1.1500000        1.1500000        0.0000000        0.5000000        0.5000000        0.0000000        0.0000000        0.0000000 
ITEM: TIMESTEP
240
ITEM: NUMBER OF ATOMS
4
ITEM: BOX BOUNDS pp pp pp
-2.7599999999999982e-02 2.3276000000000208e+00
-2.7599999999999982e-02 2.3276000000000208e+00
-2.7599999999999982e-02 2.3276000000000208e+00
ITEM: ATOMS id type x y z xs ys zs fx fy fz 
1 1       -0.0276000       -0.0276000       -0.0276000        0.0000000        0.0000000        0.0000000        0.0000000        0.0000000        0.0000000 
2 1        1.1500000        1.1500000       -0.0276000        0.5000000        0.5000000        0.0000000        0.0000000        0.0000000        0.0000000 
3 1        1.1500000       -0.0276000        1.1500000        0.5000000        0.0000000        0.5000000        0.0000000        0.0000000        0.0000000 
4 1       -0.0276000        1.1500000        1.1500000        0.0000000        0.5000000        0.5000000        0.0000000        0.0000000        0.0000000 
ITEM: TIMESTEP
250
ITEM: NUMBER OF ATOMS
4
ITEM: BOX BOUNDS pp pp pp
-2.8749999999999987e-02 2.3287500000000216e+00
-2.8749999999999987e-02 2.3287500000000216e+00
-2.8749999999999987e-02 2.3287500000000216e+00
ITEM: ATOMS id type x y z xs ys zs fx fy fz 
1 1       -0.0287500       -0.0287500       -0.0287500        0.0000000        0.0000000        0.0000000        0.0000000        0.0000000        0.0000000 
2 1        1.1500000        1.1500000       -0.0287500        0.5000000        0.5000000        0.0000000        0.0000000        0.0000000        0.0000000 
3 1        1.1500000       -0.0287500        1.1500000        0.5000000        0.0000000        0.5000000        0.0000000        0.0000000        0.0000000 
4 1       -0.0287500        1.1500000        1.1500000        0.0000000        0.5000000        0.5000000        0.0000000        0.0000000        0.0000000 
ITEM: TIMESTEP
260
ITEM: NUMBER OF ATOMS
4
ITEM: BOX BOUNDS pp pp pp
-2.9899999999999993e-02 2.3299000000000225e+00
-2.9899999999999993e-02 2.3299000000000225e+00
-2.9899999999999993e-02 2.3299000000000225e+00
ITEM: ATOMS id type x y z xs ys zs fx fy fz 
1 1       -0.0299000       -0.0299000       -0.0299000        0.0000000        0.0000000        0.0000000        0.0000000        0.0000000        0.0000000 
2 1        1.1500000        1.1500000       -0.0299000        0.5000000        0.5000000        0.0000000        0.0000000        0.0000000        0.0000000 
3 1        1.1500000       -0.0299000        1.1500000        0.5000000        0.0000000        0.5000000        0.0000000        0.0000000        0.0000000 
4 1       -0.0299000        1.1500000        1.1500000        0.0000000        0.5000000        0.5000000        0.0000000        0.0000000        0.0000000 
ITEM: TIMESTEP
270
ITEM: NUMBER OF ATOMS
4
ITEM: BOX BOUNDS pp pp pp
-3.1049999999999998e-02 2.3310500000000234e+00
-3.1049999999999998e-02 2.3310500000000234e+00
-3.1049999999999998e-02 2.3310500000000234e+00
ITEM: ATOMS id type x y z xs ys zs fx fy fz 
1 1       -0.0310500       -0.0310500       -0.0310500        0.0000000        0.0000000        0.0000000        0.0000000        0.0000000        0.0000000 
2 1        1.1500000        1.1500000       -0.0310500        0.5000000        0.5000000        0.0000000        0.0000000        0.0000000        0.0000000 
3 1        1.1500000       -0.0310500        1.1500000        0.5000000        0.0000000        0.5000000        0.0000000        0.0000000        0.0000000 
4 1       -0.0310500        1.1500000        1.1500000        0.0000000        0.5000000        0.5000000        0.0000000        0.0000000        0.0000000 
ITEM: TIMESTEP
280
ITEM: NUMBER OF ATOMS
4
ITEM: BOX BOUNDS pp pp pp
-3.2199999999999972e-02 2.3322000000000243e+00
-3.2199999999999972e-02 2.3322000000000243e+00
-3.2199999999999972e-02 2.3322000000000243e+00
ITEM: ATOMS id type x y z xs ys zs fx fy fz 
1 1       -0.0322000       -0.0322000       -0.0322000        0.0000000        0.0000000        0.0000000        0.0000000        0.0000000        0.0000000 
2 1        1.1500000        1.1500000       -0.0322000        0.5000000        0.5000000        0.0000000        0.0000000        0.0000000        0.0000000 
3 1        1.1500000       -0.0322000        1.1500000        0.5000000        0.0000000        0.5000000        0.0000000        0.0000000        0.0000000 
4 1       -0.0322000        1.1500000        1.1500000        0.0000000        0.5000000        0.5000000        0.0000000        0.0000000        0.0000000 
ITEM: TIMESTEP
290
ITEM: NUMBER OF ATOMS
4
ITEM: BOX BOUNDS pp pp pp
-3.3349999999999942e-02 2.3333500000000251e+00
-3.3349999999999942e-02 2.3333500000000251e+00
-3.3349999999999942e-02 2.3333500000000251e+00
ITEM: ATOMS id type x y z xs ys zs fx fy fz 
1 1       -0.0333500       -0.0333500       -0.0333500        0.0000000        0.0000000        0.0000000        0.0000000        0.0000000        0.0000000 
2 1        1.1500000        1.1500000       -0.0333500        0.5000000        0.5000000        0.0000000        0.0000000        0.0000000        0.0000000 
3 1        1.1500000       -0.0333500        1.1500000        0.5000000        0.0000000        0.5000000        0.0000000        0.0000000        0.0000000 
4 1       -0.0333500        1.1500000        1.1500000        0.0000000        0.5000000        0.5000000        0.0000000        0.0000000        0.0000000 
ITEM: TIMESTEP
300
ITEM: NUMBER OF ATOMS
4
ITEM: BOX BOUNDS pp pp pp
-3.4499999999999913e-02 2.3345000000000260e+00
-3.4499999999999913e-02 2.3345000000000260e+00
-3.4499999999999913e-02 2.3345000000000260e+00
ITEM: ATOMS id type x y z xs ys zs fx fy fz 
1 1       -0.0345000       -0.0345000       -0.0345000        0.0000000        0.0000000        0.0000000        0.0000000        0.0000000        0.0000000 
2 1        1.1500000        1.1500000       -0.0345000        0.5000000        0.5000000        0.0000000        0.0000000        0.0000000        0.0000000 
3 1        1.1500000       -0.0345000        1.1500000        0.5000000        0.0000000        0.5000000        0.0000000        0.0000000        0.0000000 
4 1       -0.0345000        1.1500000        1.1500000        0.0000000        0.5000000        0.5000000        0.0000000        0.0000000        0.0000000 
ITEM: TIMESTEP
310
ITEM: NUMBER OF ATOMS
4
ITEM: BOX BOUNDS pp pp pp
-3.5649999999999883e-02 2.3356500000000269e+00
-3.5649999999999883e-02 2.3356500000000269e+00
-3.5649999999999883e-02 2.3356500000000269e+00
ITEM: ATOMS id type x y z xs ys zs fx fy fz 
1 1       -0.0356500       -0.0356500       -0.0356500        0.0000000        0.0000000        0.0000000        0.0000000        0.0000000        0.0000000 
2 1        1.1500000        1.1500000       -0.0356500        0.5000000        0.5000000        0.0000000        0.0000000        0.0000000        0.0000000 
3 1        1.1500000       -0.0356500        1.1500000        0.5000000        0.0000000        0.5000000        0.0000000        0.0000000        0.0000000 
4 1       -0.0356500        1.1500000        1.1500000        0.0000000        0.5000000        0.5000000        0.0000000        0.0000000        0.0000000 
ITEM: TIMESTEP
320
ITEM: NUMBER OF ATOMS
4
ITEM: BOX BOUNDS pp pp pp
-3.6799999999999854e-02 2.3368000000000277e+00
-3.6799999999999854e-02 2.3368000000000277e+00
-3.6799999999999854e-02 2.3368000000000277e+00
ITEM: ATOMS id type x y z xs ys zs fx fy fz 
1 1       -0.0368000       -0.0368000       -0.0368000        0.0000000        0.0000000        0.0000000        0.0000000        0.0000000        0.0000000 
2 1        1.1500000        1.1500000       -0.0368000        0.5000000        0.5000000        0.0000000        0.0000000        0.0000000        0.0000000 
3 1        1.1500000       -0.0368000        1.1500000        0.5000000        0.0000000        0.5000000        0.0000000        0.0000000        0.0000000 
4 1       -0.0368000        1.1500000        1.1500000        0.0000000        0.5000000        0.5000000        0.0000000        0.0000000        0.0000000 
ITEM: TIMESTEP
330
ITEM: NUMBER OF ATOMS
4
ITEM: BOX BOUNDS pp pp pp
-3.7949999999999824e-02 2.3379500000000286e+00
-3.7949999999999824e-02 2.3379500000000286e+00
-3.7949999999999824e-02 2.3379500000000286e+00
ITEM: ATOMS id type x y z xs ys zs fx fy fz 
1 1       -0.0379500       -0.0379500       -0.0379500        0.0000000        0.0000000        0.0000000        0.0000000        0.0000000        0.0000000 
2 1        1.1500000        1.1500000       -0.0379500        0.5000000        0.5000000        0.0000000        0.0000000        0.0000000        0.0000000 
3 1        1.1500000       -0.0379500        1.1500000        0.5000000        0.0000000        0.5000000        0.0000000        0.0000000        0.0000000 