LAMMPS (12 Dec 2018)
# Define unit set and class of atomic model
units metal
atom_style atomic

# Periodic boundary conditions along all three dimensions
boundary p p p

# Create an FCC lattice with the lattice spacing supplied supplied by the user
# using a single conventional (orthogonal) unit cell
lattice fcc 2.3
Lattice spacing in x,y,z = 2.3 2.3 2.3
region box block 0 1 0 1 0 1 units lattice
create_box 1 box
Created orthogonal box = (0 0 0) to (2.3 2.3 2.3)
  1 by 1 by 1 MPI processor grid
create_atoms 1 box
Created 4 atoms
  Time spent = 0.000285149 secs
mass 1 39.948

# Specify which KIM Model to use, letting LAMMPS compute the virial/pressure
pair_style kim LAMMPSvirial ex_model_Ar_P_LJ
pair_coeff * * Ar

# Set what thermodynamic information to print to log
thermo_style custom step atoms xlo xhi ylo yhi zlo zhi pe press pxx pyy pzz pxy pxz pyz
thermo 10 # Print every 10 timesteps

# Set what information to write to dump file
dump id all custom 10 output/lammps.dump id type x y z xs ys zs fx fy fz
dump_modify id format line "%d %d %16.7f %16.7f %16.7f %16.7f %16.7f %16.7f %16.7f %16.7f %16.7f"

# Set boundary conditions to be stress-free
fix 1 all box/relax iso 0.0

# Prescribe the force on each basis atom to remain at [0,0,0].  This has the effect of
# keeping the fractional coordinates of the basis atoms fixed during the minimization,
# so that only the lattice constant is varied
fix constrain_symmetry all setforce 0.0 0.0 0.0

# Perform static minimization using the Polack-Ribiere conjugate gradient method.
# The first argument is a convergence tolerance for the energy, the second argument
# is a convergence tolerance for the forces, and the latter two arguments set the
# maximum number of allowed iterations and force/energy evaluations, respectively.
minimize 1e-16 1e-16 2000 100000
WARNING: Using 'neigh_modify every 1 delay 0 check yes' setting during minimization (../min.cpp:168)
Neighbor list info ...
  update every 1 steps, delay 0 steps, check yes
  max neighbors/atom: 2000, page size: 100000
  master list distance cutoff = 10.15
  ghost atom cutoff = 10.15
  binsize = 5.075, bins = 1 1 1
  1 neighbor lists, perpetual/occasional/extra = 1 0 0
  (1) pair kim, perpetual
      attributes: half, newton off
      pair build: half/bin/newtoff
      stencil: half/bin/3d/newtoff
      bin: standard
Per MPI rank memory allocation (min/avg/max) = 5.556 | 5.556 | 5.556 Mbytes
Step Atoms Xlo Xhi Ylo Yhi Zlo Zhi PotEng Press Pxx Pyy Pzz Pxy Pxz Pyz 
       0        4            0          2.3            0          2.3            0          2.3    6934.9393 3.6790105e+09 3.6790105e+09 3.6790105e+09 3.6790105e+09 1.770814e-07 -1.8248643e-06 -1.4172469e-06 
      10        4     -0.00115      2.30115     -0.00115      2.30115     -0.00115      2.30115    6851.6677 3.6241082e+09 3.6241082e+09 3.6241082e+09 3.6241082e+09 1.8906072e-07 1.7918222e-07 2.4241279e-07 
      20        4      -0.0023       2.3023      -0.0023       2.3023      -0.0023       2.3023     6769.474 3.5700778e+09 3.5700778e+09 3.5700778e+09 3.5700778e+09 -2.8534068e-08 -6.4922505e-07 -1.1396719e-06 
      30        4     -0.00345      2.30345     -0.00345      2.30345     -0.00345      2.30345    6688.3433 3.5169142e+09 3.5169142e+09 3.5169142e+09 3.5169142e+09 -1.8984849e-08 2.5545807e-06 2.5522433e-06 
      40        4      -0.0046       2.3046      -0.0046       2.3046      -0.0046       2.3046    6608.2607 3.4645839e+09 3.4645839e+09 3.4645839e+09 3.4645839e+09 5.0308776e-08 -8.0306002e-07 -8.0484037e-07 
      50        4     -0.00575      2.30575     -0.00575      2.30575     -0.00575      2.30575    6529.2118 3.4130823e+09 3.4130823e+09 3.4130823e+09 3.4130823e+09 -2.2749505e-08 -2.0656668e-07 1.6727432e-08 
      60        4      -0.0069       2.3069      -0.0069       2.3069      -0.0069       2.3069    6451.1823 3.3623955e+09 3.3623955e+09 3.3623955e+09 3.3623955e+09 -3.7283469e-08 2.0249115e-06 1.8183225e-06 
      70        4     -0.00805      2.30805     -0.00805      2.30805     -0.00805      2.30805    6374.1581 3.3125098e+09 3.3125098e+09 3.3125098e+09 3.3125098e+09 -3.1182321e-08 8.0010918e-07 1.1143965e-06 
      80        4      -0.0092       2.3092      -0.0092       2.3092      -0.0092       2.3092    6298.1252 3.2634117e+09 3.2634117e+09 3.2634117e+09 3.2634117e+09 1.9376462e-07 -2.6657115e-07 -4.1152284e-08 
      90        4     -0.01035      2.31035     -0.01035      2.31035     -0.01035      2.31035    6223.0699 3.2150881e+09 3.2150881e+09 3.2150881e+09 3.2150881e+09 8.4480148e-08 6.4116791e-07 7.9282684e-07 
     100        4      -0.0115       2.3115      -0.0115       2.3115      -0.0115       2.3115    6148.9788 3.1675261e+09 3.1675261e+09 3.1675261e+09 3.1675261e+09 2.0265288e-07 -1.5468853e-06 -1.296257e-06 
     110        4     -0.01265      2.31265     -0.01265      2.31265     -0.01265      2.31265    6075.8386 3.1207128e+09 3.1207128e+09 3.1207128e+09 3.1207128e+09 -8.4965465e-08 7.1039542e-07 5.4848476e-07 
     120        4      -0.0138       2.3138      -0.0138       2.3138      -0.0138       2.3138     6003.636 3.0746358e+09 3.0746358e+09 3.0746358e+09 3.0746358e+09 5.6983816e-08 9.2876198e-07 9.480626e-07 
     130        4     -0.01495      2.31495     -0.01495      2.31495     -0.01495      2.31495    5932.3583 3.0292828e+09 3.0292828e+09 3.0292828e+09 3.0292828e+09 4.1508621e-08 5.1055321e-08 -8.9292779e-08 
     140        4      -0.0161       2.3161      -0.0161       2.3161      -0.0161       2.3161    5861.9927 2.9846417e+09 2.9846417e+09 2.9846417e+09 2.9846417e+09 -3.0742807e-07 2.0007582e-06 2.1714195e-06 
     150        4     -0.01725      2.31725     -0.01725      2.31725     -0.01725      2.31725    5792.5267 2.9407007e+09 2.9407007e+09 2.9407007e+09 2.9407007e+09 2.7500585e-07 -8.9003269e-07 -1.0596866e-06 
     160        4      -0.0184       2.3184      -0.0184       2.3184      -0.0184       2.3184    5723.9479 2.8974482e+09 2.8974482e+09 2.8974482e+09 2.8974482e+09 2.5737301e-07 8.6444813e-07 8.259714e-07 
     170        4     -0.01955      2.31955     -0.01955      2.31955     -0.01955      2.31955    5656.2441 2.8548726e+09 2.8548726e+09 2.8548726e+09 2.8548726e+09 -4.2946971e-07 2.187438e-07 4.1804715e-07 
     180        4      -0.0207       2.3207      -0.0207       2.3207      -0.0207       2.3207    5589.4034 2.8129628e+09 2.8129628e+09 2.8129628e+09 2.8129628e+09 2.3472865e-07 9.4565181e-07 1.3396964e-06 
     190        4     -0.02185      2.32185     -0.02185      2.32185     -0.02185      2.32185     5523.414 2.7717078e+09 2.7717078e+09 2.7717078e+09 2.7717078e+09 -1.2535735e-08 1.7868025e-06 2.0462434e-06 
     200        4       -0.023        2.323       -0.023        2.323       -0.023        2.323    5458.2641 2.7310965e+09 2.7310965e+09 2.7310965e+09 2.7310965e+09 -1.2868242e-07 -2.1777192e-07 -3.3664423e-07 
     210        4     -0.02415      2.32415     -0.02415      2.32415     -0.02415      2.32415    5393.9424 2.6911185e+09 2.6911185e+09 2.6911185e+09 2.6911185e+09 3.5368038e-07 -6.8779625e-07 -1.0516199e-06 
     220        4      -0.0253       2.3253      -0.0253       2.3253      -0.0253       2.3253    5330.4374 2.6517632e+09 2.6517632e+09 2.6517632e+09 2.6517632e+09 -1.9649635e-08 2.5461759e-07 1.5438772e-07 
     230        4     -0.02645      2.32645     -0.02645      2.32645     -0.02645      2.32645    5267.7382 2.6130212e+09 2.6130212e+09 2.6130212e+09 2.6130212e+09 -8.8675488e-08 8.2776545e-07 8.7596485e-07 
     240        4      -0.0276       2.3276      -0.0276       2.3276      -0.0276       2.3276    5205.8337 2.5748807e+09 2.5748807e+09 2.5748807e+09 2.5748807e+09 6.8856513e-08 -2.0303166e-07 3.7678311e-08 
     250        4     -0.02875      2.32875     -0.02875      2.32875     -0.02875      2.32875     5144.713 2.5373326e+09 2.5373326e+09 2.5373326e+09 2.5373326e+09 3.6809546e-08 -7.3145808e-07 -5.0485349e-07 
     260        4      -0.0299       2.3299      -0.0299       2.3299      -0.0299       2.3299    5084.3656 2.5003671e+09 2.5003671e+09 2.5003671e+09 2.5003671e+09 1.1673916e-07 2.2451948e-07 1.9795369e-07 
     270        4     -0.03105      2.33105     -0.03105      2.33105     -0.03105      2.33105    5024.7809 2.4639747e+09 2.4639747e+09 2.4639747e+09 2.4639747e+09 -2.1742502e-07 -8.6055974e-07 -8.5629311e-07 
     280        4      -0.0322       2.3322      -0.0322       2.3322      -0.0322       2.3322    4965.9486 2.4281459e+09 2.4281459e+09 2.4281459e+09 2.4281459e+09 -5.8163268e-08 -1.538316e-06 -1.6155087e-06 
     290        4     -0.03335      2.33335     -0.03335      2.33335     -0.03335      2.33335    4907.8584 2.3928715e+09 2.3928715e+09 2.3928715e+09 2.3928715e+09 9.4084508e-08 9.2651901e-07 5.6306672e-07 
     300        4      -0.0345       2.3345      -0.0345       2.3345      -0.0345       2.3345    4850.5004 2.3581423e+09 2.3581423e+09 2.3581423e+09 2.3581423e+09 -5.1079634e-09 -3.6078543e-07 -3.2988611e-07 
     310        4     -0.03565      2.33565     -0.03565      2.33565     -0.03565      2.33565    4793.8646 2.3239495e+09 2.3239495e+09 2.3239495e+09 2.3239495e+09 3.221664e-08 1.090037e-06 1.0869978e-06 
     320        4      -0.0368       2.3368      -0.0368       2.3368      -0.0368       2.3368    4737.9412 2.2902843e+09 2.2902843e+09 2.2902843e+09 2.2902843e+09 1.0077442e-07 1.7252194e-08 -6.0350955e-07 
     330        4     -0.03795      2.33795     -0.03795      2.33795     -0.03795      2.33795    4682.7207 2.2571379e+09 2.2571379e+09 2.2571379e+09 2.2571379e+09 -5.2838842e-08 -3.4097778e-07 -7.2750557e-07 
     340        4      -0.0391       2.3391      -0.0391       2.3391      -0.0391       2.3391    4628.1935 2.224502e+09 2.224502e+09 2.224502e+09 2.224502e+09 5.0985429e-08 4.5726226e-07 4.8438674e-07 
     350        4     -0.04025      2.34025     -0.04025      2.34025     -0.04025      2.34025    4574.3503 2.1923682e+09 2.1923682e+09 2.1923682e+09 2.1923682e+09 7.9414375e-08 5.1838117e-07 6.6441114e-07 
     360        4      -0.0414       2.3414      -0.0414       2.3414      -0.0414       2.3414    4521.1819 2.1607283e+09 2.1607283e+09 2.1607283e+09 2.1607283e+09 -5.8285958e-08 -2.798649e-07 -6.1422002e-08 
     370        4     -0.04255      2.34255     -0.04255      2.34255     -0.04255      2.34255    4468.6792 2.1295742e+09 2.1295742e+09 2.1295742e+09 2.1295742e+09 2.8305608e-07 1.0422076e-06 9.3766533e-07 
     380        4      -0.0437       2.3437      -0.0437       2.3437      -0.0437       2.3437    4416.8332 2.0988981e+09 2.0988981e+09 2.0988981e+09 2.0988981e+09 -1.978891e-07 -4.3966077e-07 -6.5264033e-07 
     390        4     -0.04485      2.34485     -0.04485      2.34485     -0.04485      2.34485    4365.6352 2.0686921e+09 2.0686921e+09 2.0686921e+09 2.0686921e+09 9.8960062e-08 -4.5260149e-07 -2.7540947e-07 
     400        4       -0.046        2.346       -0.046        2.346       -0.046        2.346    4315.0763 2.0389487e+09 2.0389487e+09 2.0389487e+09 2.0389487e+09 -4.9173638e-08 2.4226623e-07 4.8596749e-07 
     410        4     -0.04715      2.34715     -0.04715      2.34715     -0.04715      2.34715    4265.1482 2.0096603e+09 2.0096603e+09 2.0096603e+09 2.0096603e+09 1.9309802e-07 4.5586386e-07 2.5296809e-07 
     420        4      -0.0483       2.3483      -0.0483       2.3483      -0.0483       2.3483    4215.8423 1.9808194e+09 1.9808194e+09 1.9808194e+09 1.9808194e+09 1.8629494e-07 1.9861468e-07 3.958571e-07 
     430        4     -0.04945      2.34945     -0.04945      2.34945     -0.04945      2.34945    4167.1503 1.952419e+09 1.952419e+09 1.952419e+09 1.952419e+09 6.500866e-08 3.1184483e-07 1.1532409e-07 
     440        4      -0.0506       2.3506      -0.0506       2.3506      -0.0506       2.3506    4119.0639 1.9244518e+09 1.9244518e+09 1.9244518e+09 1.9244518e+09 8.8356087e-08 1.1404642e-07 -5.8659772e-08 
     450        4     -0.05175      2.35175     -0.05175      2.35175     -0.05175      2.35175    4071.5752 1.8969156e+09 1.8969156e+09 1.8969156e+09 1.8969156e+09 -1.3969192e-07 -1.0549464e-06 -1.2540381e-06 
     460        4      -0.0529       2.3529      -0.0529       2.3529      -0.0529       2.3529     4024.676 1.8697939e+09 1.8697939e+09 1.8697939e+09 1.8697939e+09 -9.137365e-08 1.1377485e-07 -7.842695e-08 
     470        4     -0.05405      2.35405     -0.05405      2.35405     -0.05405      2.35405    3978.3585 1.8430848e+09 1.8430848e+09 1.8430848e+09 1.8430848e+09 1.6060726e-07 -2.5096988e-07 -3.7471342e-07 
     480        4      -0.0552       2.3552      -0.0552       2.3552      -0.0552       2.3552    3932.6151 1.8167816e+09 1.8167816e+09 1.8167816e+09 1.8167816e+09 4.9775303e-08 6.205271e-07 7.2349799e-07 
     490        4     -0.05635      2.35635     -0.05635      2.35635     -0.05635      2.35635     3887.438 1.7908778e+09 1.7908778e+09 1.7908778e+09 1.7908778e+09 -7.0232862e-08 -2.8118601e-07 -2.5698424e-07 
     500        4      -0.0575       2.3575      -0.0575       2.3575      -0.0575       2.3575    3842.8198 1.7653669e+09 1.7653669e+09 1.7653669e+09 1.7653669e+09 -6.0277893e-08 3.1987277e-07 1.8885581e-07 
     510        4     -0.05865      2.35865     -0.05865      2.35865     -0.05865      2.35865    3798.7531 1.7402426e+09 1.7402426e+09 1.7402426e+09 1.7402426e+09 2.0279369e-08 2.2453815e-07 1.2925501e-07 
     520        4      -0.0598       2.3598      -0.0598       2.3598      -0.0598       2.3598    3755.2304 1.7154987e+09 1.7154987e+09 1.7154987e+09 1.7154987e+09 -4.831043e-08 6.3983753e-07 7.737381e-07 
     530        4     -0.06095      2.36095     -0.06095      2.36095     -0.06095      2.36095    3712.2447 1.6911291e+09 1.6911291e+09 1.6911291e+09 1.6911291e+09 -1.9978738e-08 -3.3215552e-07 -3.4707315e-07 
     540        4      -0.0621       2.3621      -0.0621       2.3621      -0.0621       2.3621    3669.7887 1.6671279e+09 1.6671279e+09 1.6671279e+09 1.6671279e+09 -6.7444254e-08 1.7424884e-07 2.7975246e-07 
     550        4     -0.06325      2.36325     -0.06325      2.36325     -0.06325      2.36325    3627.8555 1.6434889e+09 1.6434889e+09 1.6434889e+09 1.6434889e+09 1.1636787e-08 -8.9817699e-08 -7.5896419e-08 
     560        4      -0.0644       2.3644      -0.0644       2.3644      -0.0644       2.3644    3586.4382 1.6202066e+09 1.6202066e+09 1.6202066e+09 1.6202066e+09 -7.1614584e-08 -3.7584553e-07 -4.9710616e-07 
     570        4     -0.06555      2.36555     -0.06555      2.36555     -0.06555      2.36555      3545.53 1.5972752e+09 1.5972752e+09 1.5972752e+09 1.5972752e+09 1.6697753e-08 -2.2148636e-07 -7.8623764e-08 
     580        4      -0.0667       2.3667      -0.0667       2.3667      -0.0667       2.3667    3505.1241 1.574689e+09 1.574689e+09 1.574689e+09 1.574689e+09 -1.4370863e-07 4.1370179e-07 3.4207923e-07 
     590        4     -0.06785      2.36785     -0.06785      2.36785     -0.06785      2.36785     3465.214 1.5524426e+09 1.5524426e+09 1.5524426e+09 1.5524426e+09 -3.4440469e-08 1.5294977e-08 -1.4684386e-07 
     600        4       -0.069        2.369       -0.069        2.369       -0.069        2.369     3425.793 1.5305305e+09 1.5305305e+09 1.5305305e+09 1.5305305e+09 -3.5736662e-08 -2.5382684e-07 -2.1631489e-07 
     610        4     -0.07015      2.37015     -0.07015      2.37015     -0.07015      2.37015    3386.8548 1.5089474e+09 1.5089474e+09 1.5089474e+09 1.5089474e+09 5.7934414e-08 2.9437816e-07 3.3888714e-07 
     620        4      -0.0713       2.3713      -0.0713       2.3713      -0.0713       2.3713     3348.393 1.4876881e+09 1.4876881e+09 1.4876881e+09 1.4876881e+09 7.0524694e-08 1.6769877e-08 -6.8602746e-08 
     630        4     -0.07245      2.37245     -0.07245      2.37245     -0.07245      2.37245    3310.4013 1.4667475e+09 1.4667475e+09 1.4667475e+09 1.4667475e+09 -4.5228373e-08 1.3492787e-08 -3.75675e-08 
     640        4      -0.0736       2.3736      -0.0736       2.3736      -0.0736       2.3736    3272.8736 1.4461203e+09 1.4461203e+09 1.4461203e+09 1.4461203e+09 -1.1769425e-07 -9.3375481e-07 -8.5779668e-07 
     650        4     -0.07475      2.37475     -0.07475      2.37475     -0.07475      2.37475    3235.8039 1.4258018e+09 1.4258018e+09 1.4258018e+09 1.4258018e+09 -4.729413e-08 -8.9587134e-08 -1.0677547e-07 
     660        4      -0.0759       2.3759      -0.0759       2.3759      -0.0759       2.3759     3199.186 1.4057869e+09 1.4057869e+09 1.4057869e+09 1.4057869e+09 -3.6940171e-08 -3.1391726e-08 -1.1066424e-07 
     670        4     -0.07705      2.37705     -0.07705      2.37705     -0.07705      2.37705    3163.0142 1.3860709e+09 1.3860709e+09 1.3860709e+09 1.3860709e+09 -1.2725356e-08 2.8889356e-07 3.8353745e-07 
     680        4      -0.0782       2.3782      -0.0782       2.3782      -0.0782       2.3782    3127.2825 1.366649e+09 1.366649e+09 1.366649e+09 1.366649e+09 7.4760047e-08 1.6696139e-07 1.2879481e-07 
     690        4     -0.07935      2.37935     -0.07935      2.37935     -0.07935      2.37935    3091.9852 1.3475189e+09 1.3475189e+09 1.3475189e+09 1.3475189e+09 9.4024978e-08 -1.1847476e-07 -1.3892393e-07 
     700        4      -0.0805       2.3805      -0.0805       2.3805      -0.0805       2.3805    3057.1166 1.3286714e+09 1.3286714e+09 1.3286714e+09 1.3286714e+09 -8.5495166e-09 -8.0671176e-08 -1.0337608e-07 
     710        4     -0.08165      2.38165     -0.08165      2.38165     -0.08165      2.38165    3022.6711 1.3101043e+09 1.3101043e+09 1.3101043e+09 1.3101043e+09 -2.6201876e-08 3.5324337e-07 4.450887e-07 
     720        4      -0.0828       2.3828      -0.0828       2.3828      -0.0828       2.3828    2988.6434 1.2918132e+09 1.2918132e+09 1.2918132e+09 1.2918132e+09 -7.4623635e-08 4.5552447e-07 5.9721398e-07 
     730        4     -0.08395      2.38395     -0.08395      2.38395     -0.08395      2.38395    2955.0278 1.2737937e+09 1.2737937e+09 1.2737937e+09 1.2737937e+09 1.5037211e-07 4.5119478e-07 4.7305526e-07 
     740        4      -0.0851       2.3851      -0.0851       2.3851      -0.0851       2.3851     2921.819 1.2560416e+09 1.2560416e+09 1.2560416e+09 1.2560416e+09 3.8887325e-08 -1.2808256e-07 -1.209861e-07 
     750        4     -0.08625      2.38625     -0.08625      2.38625     -0.08625      2.38625    2889.0119 1.2385526e+09 1.2385526e+09 1.2385526e+09 1.2385526e+09 1.6121777e-09 -3.6771533e-07 -3.4681693e-07 
     760        4      -0.0874       2.3874      -0.0874       2.3874      -0.0874       2.3874    2856.6011 1.2213226e+09 1.2213226e+09 1.2213226e+09 1.2213226e+09 8.8441875e-08 -2.2294812e-07 -2.1372328e-07 
     770        4     -0.08855      2.38855     -0.08855      2.38855     -0.08855      2.38855    2824.5815 1.2043476e+09 1.2043476e+09 1.2043476e+09 1.2043476e+09 -1.1790685e-08 1.6190492e-07 1.3970347e-07 
     780        4      -0.0897       2.3897      -0.0897       2.3897      -0.0897       2.3897     2792.948 1.1876235e+09 1.1876235e+09 1.1876235e+09 1.1876235e+09 -8.6204593e-08 2.598277e-07 2.0473777e-07 
     790        4     -0.09085      2.39085     -0.09085      2.39085     -0.09085      2.39085    2761.6958 1.1711464e+09 1.1711464e+09 1.1711464e+09 1.1711464e+09 2.2016828e-08 -2.0097262e-07 -2.7905845e-07 
     800        4       -0.092        2.392       -0.092        2.392       -0.092        2.392    2730.8197 1.1549125e+09 1.1549125e+09 1.1549125e+09 1.1549125e+09 -2.2507232e-08 -2.778468e-07 -9.4972167e-08 
     810        4     -0.09315      2.39315     -0.09315      2.39315     -0.09315      2.39315     2700.315 1.1389179e+09 1.1389179e+09 1.1389179e+09 1.1389179e+09 6.1323968e-08 6.1430465e-08 6.1237763e-08 
     820        4      -0.0943       2.3943      -0.0943       2.3943      -0.0943       2.3943    2670.1768 1.1231589e+09 1.1231589e+09 1.1231589e+09 1.1231589e+09 -3.360091e-08 3.6728069e-07 3.7301092e-07 
     830        4     -0.09545      2.39545     -0.09545      2.39545     -0.09545      2.39545    2640.4005 1.1076318e+09 1.1076318e+09 1.1076318e+09 1.1076318e+09 4.6865261e-08 3.1306001e-07 3.6273054e-07 
     840        4      -0.0966       2.3966      -0.0966       2.3966      -0.0966       2.3966    2610.9814 1.092333e+09 1.092333e+09 1.092333e+09 1.092333e+09 -1.2954201e-08 -4.3439831e-07 -3.5131611e-07 
     850        4     -0.09775      2.39775     -0.09775      2.39775     -0.09775      2.39775    2581.9149 1.077259e+09 1.077259e+09 1.077259e+09 1.077259e+09 6.8590289e-08 2.3612268e-07 2.2570787e-07 
     860        4      -0.0989       2.3989      -0.0989       2.3989      -0.0989       2.3989    2553.1964 1.0624061e+09 1.0624061e+09 1.0624061e+09 1.0624061e+09 -1.2747912e-08 1.4872675e-08 -6.2812282e-08 
     870        4     -0.10005      2.40005     -0.10005      2.40005     -0.10005      2.40005    2524.8215 1.0477711e+09 1.0477711e+09 1.0477711e+09 1.0477711e+09 -1.5063245e-07 8.6145067e-08 -2.6793353e-08 
     880        4      -0.1012       2.4012      -0.1012       2.4012      -0.1012       2.4012    2496.7858 1.0333505e+09 1.0333505e+09 1.0333505e+09 1.0333505e+09 5.1223459e-08 4.5808122e-08 1.7924948e-08 
     890        4     -0.10235      2.40235     -0.10235      2.40235     -0.10235      2.40235    2469.0848 1.0191409e+09 1.0191409e+09 1.0191409e+09 1.0191409e+09 -6.281523e-08 -1.7591511e-07 -7.0729071e-08 
     900        4      -0.1035       2.4035      -0.1035       2.4035      -0.1035       2.4035    2441.7144 1.0051392e+09 1.0051392e+09 1.0051392e+09 1.0051392e+09 -6.6238698e-08 -1.1145213e-08 1.6887357e-08 
     910        4     -0.10465      2.40465     -0.10465      2.40465     -0.10465      2.40465    2414.6703 9.9134199e+08 9.9134199e+08 9.9134199e+08 9.9134199e+08 3.2503251e-08 3.6469171e-08 3.6220246e-08 
     920        4      -0.1058       2.4058      -0.1058       2.4058      -0.1058       2.4058    2387.9483 9.7774622e+08 9.7774622e+08 9.7774622e+08 9.7774622e+08 -3.7460624e-08 -1.4298238e-07 -1.4224299e-07 
     930        4     -0.10695      2.40695     -0.10695      2.40695     -0.10695      2.40695    2361.5443 9.6434874e+08 9.6434874e+08 9.6434874e+08 9.6434874e+08 8.1866789e-08 1.6190872e-07 7.1729322e-08 
     940        4      -0.1081       2.4081      -0.1081       2.4081      -0.1081       2.4081    2335.4542 9.5115066e+08 9.5115066e+08 9.5115066e+08 9.5115066e+08 1.3651822e-08 1.4796231e-07 3.0291213e-07 
     950        4     -0.10925      2.40925     -0.10925      2.40925     -0.10925      2.40925     2309.674 9.3814057e+08 9.3814057e+08 9.3814057e+08 9.3814057e+08 5.9150461e-09 -2.5233016e-07 -1.4352518e-07 
     960        4      -0.1104       2.4104      -0.1104       2.4104      -0.1104       2.4104    2284.1998 9.2531973e+08 9.2531973e+08 9.2531973e+08 9.2531973e+08 -6.4079457e-08 -1.1317321e-07 -4.6921965e-08 
     970        4     -0.11155      2.41155     -0.11155      2.41155     -0.11155      2.41155    2259.0276 9.126852e+08 9.126852e+08 9.126852e+08 9.126852e+08 -3.8204547e-08 2.2033652e-07 1.6588877e-07 
     980        4      -0.1127       2.4127      -0.1127       2.4127      -0.1127       2.4127    2234.1537 9.0023413e+08 9.0023413e+08 9.0023413e+08 9.0023413e+08 4.8352091e-08 4.5186235e-07 4.081541e-07 
     990        4     -0.11385      2.41385     -0.11385      2.41385     -0.11385      2.41385    2209.5743 8.8796368e+08 8.8796368e+08 8.8796368e+08 8.8796368e+08 -4.5778535e-08 -2.0172467e-07 -1.4028702e-07 
    1000        4       -0.115        2.415       -0.115        2.415       -0.115        2.415    2185.2856 8.7587108e+08 8.7587108e+08 8.7587108e+08 8.7587108e+08 -3.0117512e-08 5.7628671e-08 1.1637276e-07 
    1010        4     -0.11615      2.41615     -0.11615      2.41615     -0.11615      2.41615    2161.2839 8.6395359e+08 8.6395359e+08 8.6395359e+08 8.6395359e+08 -6.3364202e-08 1.6014645e-07 2.2789505e-07 
    1020        4      -0.1173       2.4173      -0.1173       2.4173      -0.1173       2.4173    2137.5656 8.5220853e+08 8.5220853e+08 8.5220853e+08 8.5220853e+08 1.0802526e-08 4.3641645e-09 1.5835706e-08 
    1030        4     -0.11845      2.41845     -0.11845      2.41845     -0.11845      2.41845    2114.1271 8.4063325e+08 8.4063325e+08 8.4063325e+08 8.4063325e+08 2.4926815e-08 -2.0880037e-08 -6.5915185e-08 
    1040        4      -0.1196       2.4196      -0.1196       2.4196      -0.1196       2.4196    2090.9648 8.2922515e+08 8.2922515e+08 8.2922515e+08 8.2922515e+08 -3.2765319e-08 -4.7688489e-08 -1.4161065e-07 
    1050        4     -0.12075      2.42075     -0.12075      2.42075     -0.12075      2.42075    2068.0753 8.1798166e+08 8.1798166e+08 8.1798166e+08 8.1798166e+08  1.74068e-07 8.4160205e-08 1.7529591e-07 
    1060        4      -0.1219       2.4219      -0.1219       2.4219      -0.1219       2.4219    2045.4552 8.0690028e+08 8.0690028e+08 8.0690028e+08 8.0690028e+08 -1.3049635e-09 2.2525325e-07 1.4402763e-07 
    1070        4     -0.12305      2.42305     -0.12305      2.42305     -0.12305      2.42305    2023.1009 7.9597852e+08 7.9597852e+08 7.9597852e+08 7.9597852e+08 2.0316297e-08 4.1763652e-07 3.8921726e-07 
    1080        4      -0.1242       2.4242      -0.1242       2.4242      -0.1242       2.4242    2001.0093 7.8521394e+08 7.8521394e+08 7.8521394e+08 7.8521394e+08 -5.6182165e-08 -2.0423203e-09 1.0754176e-07 
    1090        4     -0.12535      2.42535     -0.12535      2.42535     -0.12535      2.42535    1979.1768 7.7460414e+08 7.7460414e+08 7.7460414e+08 7.7460414e+08 -6.5367902e-08 1.8725907e-08 3.5157739e-08 
    1100        4      -0.1265       2.4265      -0.1265       2.4265      -0.1265       2.4265    1957.6004 7.6414677e+08 7.6414677e+08 7.6414677e+08 7.6414677e+08 -1.4049981e-08 -9.0459594e-08 -8.2780692e-08 
    1110        4     -0.12765      2.42765     -0.12765      2.42765     -0.12765      2.42765    1936.2768 7.538395e+08 7.538395e+08 7.538395e+08 7.538395e+08 1.4982673e-08 -1.0966958e-07 -1.4605657e-07 
    1120        4      -0.1288       2.4288      -0.1288       2.4288      -0.1288       2.4288    1915.2027 7.4368006e+08 7.4368006e+08 7.4368006e+08 7.4368006e+08 1.9747039e-08 -1.9824025e-07 -1.9553626e-07 
    1130        4     -0.12995      2.42995     -0.12995      2.42995     -0.12995      2.42995    1894.3752 7.3366618e+08 7.3366618e+08 7.3366618e+08 7.3366618e+08 -1.2130904e-08 3.5208988e-08 -4.195955e-08 
    1140        4      -0.1311       2.4311      -0.1311       2.4311      -0.1311       2.4311     1873.791 7.2379567e+08 7.2379567e+08 7.2379567e+08 7.2379567e+08 -1.0713987e-08 1.633021e-07 1.6617804e-07 
    1150        4     -0.13225      2.43225     -0.13225      2.43225     -0.13225      2.43225    1853.4471 7.1406634e+08 7.1406634e+08 7.1406634e+08 7.1406634e+08 -5.5476875e-08 -2.7724185e-07 -2.768687e-07 
    1160        4      -0.1334       2.4334      -0.1334       2.4334      -0.1334       2.4334    1833.3405 7.0447605e+08 7.0447605e+08 7.0447605e+08 7.0447605e+08 1.3288222e-08 -8.0681261e-08 -9.0859484e-08 
    1170        4     -0.13455      2.43455     -0.13455      2.43455     -0.13455      2.43455    1813.4683 6.950227e+08 6.950227e+08 6.950227e+08 6.950227e+08 5.3299317e-08 -4.5774832e-08 -2.0744853e-08 
    1180        4      -0.1357       2.4357      -0.1357       2.4357      -0.1357       2.4357    1793.8275 6.8570421e+08 6.8570421e+08 6.8570421e+08 6.8570421e+08 -3.8505417e-08 1.5454616e-07 1.7049477e-07 
    1190        4     -0.13685      2.43685     -0.13685      2.43685     -0.13685      2.43685    1774.4152 6.7651855e+08 6.7651855e+08 6.7651855e+08 6.7651855e+08 -6.1001272e-09 -1.0514945e-07 -2.4360658e-08 
    1200        4       -0.138        2.438       -0.138        2.438       -0.138        2.438    1755.2286 6.674637e+08 6.674637e+08 6.674637e+08 6.674637e+08 2.2187817e-08 1.4224343e-07 2.034841e-07 
    1210        4     -0.13915      2.43915     -0.13915      2.43915     -0.13915      2.43915    1736.2648 6.5853963e+08 6.5853963e+08 6.5853963e+08 6.5853963e+08 -1.1797831e-08 -7.7036313e-08 -1.1651312e-07 
    1220        4      -0.1403       2.4403      -0.1403       2.4403      -0.1403       2.4403    1717.5211 6.4974051e+08 6.4974051e+08 6.4974051e+08 6.4974051e+08 -2.4222997e-08 -2.0609208e-08 -3.700213e-08 
    1230        4     -0.14145      2.44145     -0.14145      2.44145     -0.14145      2.44145    1698.9947 6.4106637e+08 6.4106637e+08 6.4106637e+08 6.4106637e+08 -4.5530583e-08 -1.8463622e-07 -1.7226234e-07 
    1240        4      -0.1426       2.4426      -0.1426       2.4426      -0.1426       2.4426    1680.6829 6.3251533e+08 6.3251533e+08 6.3251533e+08 6.3251533e+08 1.6879096e-08 2.0511478e-07 2.3148243e-07 
    1250        4     -0.14375      2.44375     -0.14375      2.44375     -0.14375      2.44375    1662.5832 6.2408555e+08 6.2408555e+08 6.2408555e+08 6.2408555e+08 3.1890937e-08 5.3577764e-08 -1.663513e-08 
    1260        4      -0.1449       2.4449      -0.1449       2.4449      -0.1449       2.4449    1644.6928 6.1577519e+08 6.1577519e+08 6.1577519e+08 6.1577519e+08 -3.512424e-08 8.7074408e-08 8.548105e-08 
    1270        4     -0.14605      2.44605     -0.14605      2.44605     -0.14605      2.44605    1627.0091 6.0758247e+08 6.0758247e+08 6.0758247e+08 6.0758247e+08 -2.6243961e-08 -6.0118897e-08 -3.5895578e-08 
    1280        4      -0.1472       2.4472      -0.1472       2.4472      -0.1472       2.4472    1609.5296 5.9950562e+08 5.9950562e+08 5.9950562e+08 5.9950562e+08 2.1615833e-08 -1.9196463e-08 -5.3468001e-09 
    1290        4     -0.14835      2.44835     -0.14835      2.44835     -0.14835      2.44835    1592.2518 5.915429e+08 5.915429e+08 5.915429e+08 5.915429e+08 3.0568822e-10 1.0964554e-07 5.9067996e-08 
    1300        4      -0.1495       2.4495      -0.1495       2.4495      -0.1495       2.4495    1575.1731 5.836926e+08 5.836926e+08 5.836926e+08 5.836926e+08 2.9935965e-08 -7.6193866e-08 -9.6359122e-08 
    1310        4     -0.15065      2.45065     -0.15065      2.45065     -0.15065      2.45065    1558.2911 5.7595304e+08 5.7595304e+08 5.7595304e+08 5.7595304e+08 -1.0732676e-08 -5.6408241e-08 -9.1397308e-08 
    1320        4      -0.1518       2.4518      -0.1518       2.4518      -0.1518       2.4518    1541.6034 5.6832256e+08 5.6832256e+08 5.6832256e+08 5.6832256e+08 -3.1840798e-08 8.3018365e-08 7.961973e-08 
    1330        4     -0.15295      2.45295     -0.15295      2.45295     -0.15295      2.45295    1525.1076 5.6079954e+08 5.6079954e+08 5.6079954e+08 5.6079954e+08 -1.2532338e-08 3.7538274e-07 3.9381628e-07 
    1340        4      -0.1541       2.4541      -0.1541       2.4541      -0.1541       2.4541    1508.8013 5.5338236e+08 5.5338236e+08 5.5338236e+08 5.5338236e+08 1.5785214e-08 -2.2232213e-07 -2.3820647e-07 
    1350        4     -0.15525      2.45525     -0.15525      2.45525     -0.15525      2.45525    1492.6821 5.4606946e+08 5.4606946e+08 5.4606946e+08 5.4606946e+08 -2.182461e-10 2.8483702e-08 5.2129709e-08 
    1360        4      -0.1564       2.4564      -0.1564       2.4564      -0.1564       2.4564    1476.7479 5.3885928e+08 5.3885928e+08 5.3885928e+08 5.3885928e+08 1.9374235e-08 -1.6646274e-07 -2.4286036e-07 
    1370        4     -0.15755      2.45755     -0.15755      2.45755     -0.15755      2.45755    1460.9962 5.3175028e+08 5.3175028e+08 5.3175028e+08 5.3175028e+08 2.9245697e-09 -9.442106e-08 -1.2572371e-07 
    1380        4      -0.1587       2.4587      -0.1587       2.4587      -0.1587       2.4587    1445.4249 5.2474096e+08 5.2474096e+08 5.2474096e+08 5.2474096e+08 1.5910345e-08 -4.3768909e-08 -1.225429e-08 
    1390        4     -0.15985      2.45985     -0.15985      2.45985     -0.15985      2.45985    1430.0317 5.1782984e+08 5.1782984e+08 5.1782984e+08 5.1782984e+08 3.1099239e-08 1.5223989e-08 1.4383262e-08 
    1400        4       -0.161        2.461       -0.161        2.461       -0.161        2.461    1414.8144 5.1101547e+08 5.1101547e+08 5.1101547e+08 5.1101547e+08 -1.7675062e-08 1.869179e-07 1.8350912e-07 
    1410        4     -0.16215      2.46215     -0.16215      2.46215     -0.16215      2.46215     1399.771 5.042964e+08 5.042964e+08 5.042964e+08 5.042964e+08 -3.0143869e-09  1.61037e-07 2.3787039e-07 
    1420        4      -0.1633       2.4633      -0.1633       2.4633      -0.1633       2.4633    1384.8993 4.9767123e+08 4.9767123e+08 4.9767123e+08 4.9767123e+08 3.7520922e-09 1.2740747e-07 1.3596212e-07 
    1430        4     -0.16445      2.46445     -0.16445      2.46445     -0.16445      2.46445    1370.1971 4.9113855e+08 4.9113855e+08 4.9113855e+08 4.9113855e+08 -1.6666987e-08 9.3540669e-08 1.0250899e-07 
    1440        4      -0.1656       2.4656      -0.1656       2.4656      -0.1656       2.4656    1355.6624 4.8469701e+08 4.8469701e+08 4.8469701e+08 4.8469701e+08 3.4674372e-09 -3.1106973e-08 3.2177755e-08 
    1450        4     -0.16675      2.46675     -0.16675      2.46675     -0.16675      2.46675    1341.2931 4.7834526e+08 4.7834526e+08 4.7834526e+08 4.7834526e+08 -1.1006608e-08 3.0065943e-08 9.0322061e-09 
    1460        4      -0.1679       2.4679      -0.1679       2.4679      -0.1679       2.4679    1327.0873 4.7208197e+08 4.7208197e+08 4.7208197e+08 4.7208197e+08 -1.6507446e-08 7.7234159e-08 7.5802785e-08 
    1470        4     -0.16905      2.46905     -0.16905      2.46905     -0.16905      2.46905    1313.0429 4.6590583e+08 4.6590583e+08 4.6590583e+08 4.6590583e+08 1.2895956e-08 -3.6036161e-08 -1.1499623e-08 
    1480        4      -0.1702       2.4702      -0.1702       2.4702      -0.1702       2.4702    1299.1581 4.5981555e+08 4.5981555e+08 4.5981555e+08 4.5981555e+08 -3.4065157e-08 3.2723176e-08 -1.7145405e-08 
    1490        4     -0.17135      2.47135     -0.17135      2.47135     -0.17135      2.47135    1285.4307 4.5380988e+08 4.5380988e+08 4.5380988e+08 4.5380988e+08 2.8093042e-08 1.0485012e-07 1.1138997e-07 
    1500        4      -0.1725       2.4725      -0.1725       2.4725      -0.1725       2.4725    1271.8589 4.4789297e+08 4.4789297e+08 4.4789297e+08 4.4789297e+08 1.0061905e-08 -4.6418367e-09 -8.7286421e-09 
    1510        4     -0.17365      2.47365     -0.17365      2.47365     -0.17365      2.47365    1258.4407 4.4205275e+08 4.4205275e+08 4.4205275e+08 4.4205275e+08 -9.377447e-09 -1.160622e-07 -9.3559735e-08 
    1520        4      -0.1748       2.4748      -0.1748       2.4748      -0.1748       2.4748    1245.1744 4.3629344e+08 4.3629344e+08 4.3629344e+08 4.3629344e+08 -1.1355571e-08 7.7263619e-08 3.1422996e-08 
    1530        4     -0.17595      2.47595     -0.17595      2.47595     -0.17595      2.47595    1232.0581 4.3061388e+08 4.3061388e+08 4.3061388e+08 4.3061388e+08 2.3782223e-08 2.1526471e-08 2.0691641e-08 
    1540        4      -0.1771       2.4771      -0.1771       2.4771      -0.1771       2.4771      1219.09 4.2501288e+08 4.2501288e+08 4.2501288e+08 4.2501288e+08 -2.4272332e-08 -6.8691276e-09 -3.7772975e-09 
    1550        4     -0.17825      2.47825     -0.17825      2.47825     -0.17825      2.47825    1206.2683 4.1948929e+08 4.1948929e+08 4.1948929e+08 4.1948929e+08 -2.5491911e-08 3.1224613e-08 3.7488985e-08 
    1560        4      -0.1794       2.4794      -0.1794       2.4794      -0.1794       2.4794    1193.5912 4.1404198e+08 4.1404198e+08 4.1404198e+08 4.1404198e+08 1.0680024e-08 -1.5263478e-07 -1.5451301e-07 
    1570        4     -0.18055      2.48055     -0.18055      2.48055     -0.18055      2.48055     1181.057 4.0866983e+08 4.0866983e+08 4.0866983e+08 4.0866983e+08 3.1250703e-08 -1.3359807e-07 -1.1539846e-07 
    1580        4      -0.1817       2.4817      -0.1817       2.4817      -0.1817       2.4817     1168.664 4.0337174e+08 4.0337174e+08 4.0337174e+08 4.0337174e+08 2.0134274e-09 -4.4478029e-08 -6.4391466e-08 
    1590        4     -0.18285      2.48285     -0.18285      2.48285     -0.18285      2.48285    1156.4104 3.9814664e+08 3.9814664e+08 3.9814664e+08 3.9814664e+08 1.8261005e-08 3.7324544e-08 9.9237195e-09 
    1600        4       -0.184        2.484       -0.184        2.484       -0.184        2.484    1144.2946 3.9299345e+08 3.9299345e+08 3.9299345e+08 3.9299345e+08 -5.9087822e-09 2.2136661e-07 1.9787625e-07 
    1610        4     -0.18515      2.48515     -0.18515      2.48515     -0.18515      2.48515    1132.3149 3.8791113e+08 3.8791113e+08 3.8791113e+08 3.8791113e+08 -1.8506713e-08 4.8074446e-08 2.1500517e-08 
    1620        4      -0.1863       2.4863      -0.1863       2.4863      -0.1863       2.4863    1120.4697 3.8289864e+08 3.8289864e+08 3.8289864e+08 3.8289864e+08 -1.6085897e-08 2.4094027e-08 9.2315308e-08 
    1630        4     -0.18745      2.48745     -0.18745      2.48745     -0.18745      2.48745    1108.7574 3.7795497e+08 3.7795497e+08 3.7795497e+08 3.7795497e+08 -2.9882004e-08 7.8121289e-08 1.0046351e-07 
    1640        4      -0.1886       2.4886      -0.1886       2.4886      -0.1886       2.4886    1097.1763 3.7307911e+08 3.7307911e+08 3.7307911e+08 3.7307911e+08 -1.5484895e-08 -6.6611757e-08 -1.0305458e-07 
    1650        4     -0.18975      2.48975     -0.18975      2.48975     -0.18975      2.48975    1085.7249 3.6827008e+08 3.6827008e+08 3.6827008e+08 3.6827008e+08 -2.192716e-08 -8.9782034e-08 -1.2923329e-07 
    1660        4      -0.1909       2.4909      -0.1909       2.4909      -0.1909       2.4909    1074.4016 3.6352691e+08 3.6352691e+08 3.6352691e+08 3.6352691e+08 4.0379363e-09 3.6792926e-08 4.1257139e-08 
    1670        4     -0.19205      2.49205     -0.19205      2.49205     -0.19205      2.49205    1063.2049 3.5884864e+08 3.5884864e+08 3.5884864e+08 3.5884864e+08 -6.7200582e-09 -4.138228e-08 -5.5768383e-08 
    1680        4      -0.1932       2.4932      -0.1932       2.4932      -0.1932       2.4932    1052.1333 3.5423433e+08 3.5423433e+08 3.5423433e+08 3.5423433e+08 1.4224893e-09 6.4708184e-08 6.7520483e-08 
    1690        4     -0.19435      2.49435     -0.19435      2.49435     -0.19435      2.49435    1041.1852 3.4968306e+08 3.4968306e+08 3.4968306e+08 3.4968306e+08 4.5085801e-09 9.3454222e-08 6.2728652e-08 
    1700        4      -0.1955       2.4955      -0.1955       2.4955      -0.1955       2.4955    1030.3593 3.4519391e+08 3.4519391e+08 3.4519391e+08 3.4519391e+08 1.0931023e-08 -2.129477e-08 -3.6413681e-08 
    1710        4     -0.19665      2.49665     -0.19665      2.49665     -0.19665      2.49665     1019.654 3.4076598e+08 3.4076598e+08 3.4076598e+08 3.4076598e+08 -1.4619192e-08 -6.5737215e-08 -4.4770831e-08 
    1720        4      -0.1978       2.4978      -0.1978       2.4978      -0.1978       2.4978    1009.0679 3.3639839e+08 3.3639839e+08 3.3639839e+08 3.3639839e+08 5.1193612e-09 -6.1930784e-08 -5.6220367e-08 
    1730        4     -0.19895      2.49895     -0.19895      2.49895     -0.19895      2.49895    998.59958 3.3209027e+08 3.3209027e+08 3.3209027e+08 3.3209027e+08 -5.2999429e-08 -2.4466116e-08 -1.5323746e-08 
    1740        4      -0.2001       2.5001      -0.2001       2.5001      -0.2001       2.5001    988.24764 3.2784075e+08 3.2784075e+08 3.2784075e+08 3.2784075e+08 7.5695802e-10 5.6366036e-08 6.8131482e-08 
    1750        4     -0.20125      2.50125     -0.20125      2.50125     -0.20125      2.50125    978.01068  3.23649e+08  3.23649e+08  3.23649e+08  3.23649e+08 -4.463757e-09 1.1427847e-07 1.0207498e-07 
    1760        4      -0.2024       2.5024      -0.2024       2.5024      -0.2024       2.5024    967.88734 3.1951418e+08 3.1951418e+08 3.1951418e+08 3.1951418e+08 1.6280271e-08 -1.0116441e-07 -1.1338889e-07 
    1770        4     -0.20355      2.50355     -0.20355      2.50355     -0.20355      2.50355    957.87627 3.1543548e+08 3.1543548e+08 3.1543548e+08 3.1543548e+08 7.4793687e-09 -5.9971025e-08 -5.3939627e-08 
    1780        4      -0.2047       2.5047      -0.2047       2.5047      -0.2047       2.5047    947.97614 3.1141208e+08 3.1141208e+08 3.1141208e+08 3.1141208e+08 1.7681435e-08 -9.6959466e-08 -1.2554712e-07 
    1790        4     -0.20585      2.50585     -0.20585      2.50585     -0.20585      2.50585    938.18562 3.0744319e+08 3.0744319e+08 3.0744319e+08 3.0744319e+08 1.2884929e-08 -1.1151981e-07 -1.222713e-07 
    1800        4       -0.207        2.507       -0.207        2.507       -0.207        2.507    928.50342 3.0352802e+08 3.0352802e+08 3.0352802e+08 3.0352802e+08 -2.5798023e-08 5.4577757e-09 -2.0393936e-08 
    1810        4     -0.20815      2.50815     -0.20815      2.50815     -0.20815      2.50815    918.92826 2.9966582e+08 2.9966582e+08 2.9966582e+08 2.9966582e+08 7.6767179e-09 7.5631404e-08 6.5558159e-08 
    1820        4      -0.2093       2.5093      -0.2093       2.5093      -0.2093       2.5093    909.45881 2.9585788e+08 2.9585788e+08 2.9585788e+08 2.9585788e+08 -2.0112244e-09 2.848398e-08 4.2969479e-08 
    1830        4     -0.21045      2.51045     -0.21045      2.51045     -0.21045      2.51045    900.09386 2.920993e+08 2.920993e+08 2.920993e+08 2.920993e+08 -1.1841623e-08 9.4085944e-08 9.9966211e-08 
    1840        4      -0.2116       2.5116      -0.2116       2.5116      -0.2116       2.5116    890.83219 2.8839145e+08 2.8839145e+08 2.8839145e+08 2.8839145e+08 2.1631057e-08 -1.2158836e-07 -1.4177354e-07 
    1850        4     -0.21275      2.51275     -0.21275      2.51275     -0.21275      2.51275    881.67258 2.8473358e+08 2.8473358e+08 2.8473358e+08 2.8473358e+08 1.3105019e-08 -1.1745635e-08 -4.5013383e-08 
    1860        4      -0.2139       2.5139      -0.2139       2.5139      -0.2139       2.5139    872.61383 2.8112498e+08 2.8112498e+08 2.8112498e+08 2.8112498e+08 -9.0206352e-10 6.6557315e-08 4.400189e-08 
    1870        4     -0.21505      2.51505     -0.21505      2.51505     -0.21505      2.51505    863.65474 2.7756496e+08 2.7756496e+08 2.7756496e+08 2.7756496e+08 1.7548519e-08 -4.6822013e-08 -4.8737814e-08 
    1880        4      -0.2162       2.5162      -0.2162       2.5162      -0.2162       2.5162    854.79415 2.7405282e+08 2.7405282e+08 2.7405282e+08 2.7405282e+08 4.572189e-11 5.0933047e-08 4.0529488e-08 
    1890        4     -0.21735      2.51735     -0.21735      2.51735     -0.21735      2.51735    846.03088 2.7058787e+08 2.7058787e+08 2.7058787e+08 2.7058787e+08 9.8704631e-09 5.373461e-08 5.8200705e-08 
    1900        4      -0.2185       2.5185      -0.2185       2.5185      -0.2185       2.5185    837.36381 2.6716945e+08 2.6716945e+08 2.6716945e+08 2.6716945e+08 5.9461278e-09 -1.4083963e-08 -7.7308324e-09 
    1910        4     -0.21965      2.51965     -0.21965      2.51965     -0.21965      2.51965    828.79179 2.6379689e+08 2.6379689e+08 2.6379689e+08 2.6379689e+08 1.8335625e-09 8.5419604e-08 7.7439423e-08 
    1920        4      -0.2208       2.5208      -0.2208       2.5208      -0.2208       2.5208     820.3137 2.6046954e+08 2.6046954e+08 2.6046954e+08 2.6046954e+08 -1.5529088e-09 -8.1309701e-08 -8.1796371e-08 
    1930        4     -0.22195      2.52195     -0.22195      2.52195     -0.22195      2.52195    811.92846 2.5718676e+08 2.5718676e+08 2.5718676e+08 2.5718676e+08 2.2332854e-09 6.7288858e-08 6.103714e-08 
    1940        4      -0.2231       2.5231      -0.2231       2.5231      -0.2231       2.5231    803.63496 2.5394791e+08 2.5394791e+08 2.5394791e+08 2.5394791e+08 1.2012872e-08 5.6444792e-08 6.7346889e-08 
    1950        4     -0.22425      2.52425     -0.22425      2.52425     -0.22425      2.52425    795.43214 2.5075238e+08 2.5075238e+08 2.5075238e+08 2.5075238e+08 5.5908263e-09 -4.9858328e-08 -3.7190544e-08 
    1960        4      -0.2254       2.5254      -0.2254       2.5254      -0.2254       2.5254    787.31893 2.4759954e+08 2.4759954e+08 2.4759954e+08 2.4759954e+08 -1.1465062e-08 2.9377112e-08 4.3398723e-08 
    1970        4     -0.22655      2.52655     -0.22655      2.52655     -0.22655      2.52655    779.29428 2.444888e+08 2.444888e+08 2.444888e+08 2.444888e+08 7.1595004e-09 5.8656021e-08 7.1981353e-08 
    1980        4      -0.2277       2.5277      -0.2277       2.5277      -0.2277       2.5277    771.35716 2.4141956e+08 2.4141956e+08 2.4141956e+08 2.4141956e+08 1.1738602e-08  5.30674e-08 5.3356643e-08 
    1990        4     -0.22885      2.52885     -0.22885      2.52885     -0.22885      2.52885    763.50654 2.3839124e+08 2.3839124e+08 2.3839124e+08 2.3839124e+08 3.0325042e-09 -2.0145022e-08 -2.3857677e-08 
    2000        4        -0.23         2.53        -0.23         2.53        -0.23         2.53    755.74143 2.3540324e+08 2.3540324e+08 2.3540324e+08 2.3540324e+08 -5.7354627e-09 -4.9206782e-08 -4.2780489e-08 
Loop time of 1.11622 on 1 procs for 2000 steps with 4 atoms

98.7% CPU use with 1 MPI tasks x no OpenMP threads

Minimization stats:
  Stopping criterion = max iterations
  Energy initial, next-to-last, final = 
         6934.93933718      756.514119545      755.741426582
  Force two-norm initial, final = 83815.7 7722.7
  Force max component initial, final = 83815.7 7722.7
  Final line search alpha, max atom move = 1.29347e-08 9.98906e-05
  Iterations, force evaluations = 2000 2000

MPI task timing breakdown:
Section |  min time  |  avg time  |  max time  |%varavg| %total
---------------------------------------------------------------
Pair    | 0.88588    | 0.88588    | 0.88588    |   0.0 | 79.36
Neigh   | 0          | 0          | 0          |   0.0 |  0.00
Comm    | 0.054697   | 0.054697   | 0.054697   |   0.0 |  4.90
Output  | 0.01978    | 0.01978    | 0.01978    |   0.0 |  1.77
Modify  | 0.00090551 | 0.00090551 | 0.00090551 |   0.0 |  0.08
Other   |            | 0.155      |            |       | 13.88

Nlocal:    4 ave 4 max 4 min
Histogram: 1 0 0 0 0 0 0 0 0 0
Nghost:    3426 ave 3426 max 3426 min
Histogram: 1 0 0 0 0 0 0 0 0 0
Neighs:    5722 ave 5722 max 5722 min
Histogram: 1 0 0 0 0 0 0 0 0 0

Total # of neighbors = 5722
Ave neighs/atom = 1430.5
Neighbor list builds = 0
Dangerous builds = 0

# Define auxiliary variables to contain cohesive energy and equilibrium lattice constant
variable poteng    equal "c_thermo_pe"
variable natoms    equal "count(all)"
variable ecohesive equal "-v_poteng/v_natoms"
variable pressure  equal "c_thermo_press"
variable a         equal "lx"

# Output cohesive energy and equilibrium lattice constant
print "Final pressure = ${pressure} bar"
Final pressure = 235403241.647368 bar
print "Cohesive energy = ${ecohesive} eV/atom"
Cohesive energy = -188.935356645442 eV/atom
print "Equilibrium lattice constant = ${a} angstrom"
Equilibrium lattice constant = 2.76000000000017 angstrom
Total wall time: 0:00:01
