ITEM: TIMESTEP
0
ITEM: NUMBER OF ATOMS
4
ITEM: BOX BOUNDS pp pp pp
0.0000000000000000e+00 3.0000000000000000e+00
0.0000000000000000e+00 3.0000000000000000e+00
0.0000000000000000e+00 3.0000000000000000e+00
ITEM: ATOMS id type x y z xs ys zs fx fy fz 
1 1        0.0000000        0.0000000        0.0000000        0.0000000        0.0000000        0.0000000        0.0000000        0.0000000        0.0000000 
2 1        1.5000000        1.5000000        0.0000000        0.5000000        0.5000000        0.0000000        0.0000000        0.0000000        0.0000000 
3 1        1.5000000        0.0000000        1.5000000        0.5000000        0.0000000        0.5000000        0.0000000        0.0000000        0.0000000 
4 1        0.0000000        1.5000000        1.5000000        0.0000000        0.5000000        0.5000000        0.0000000        0.0000000        0.0000000 
ITEM: TIMESTEP
10
ITEM: NUMBER OF ATOMS
4
ITEM: BOX BOUNDS pp pp pp
-1.4999999999999998e-03 3.0015000000000009e+00
-1.4999999999999998e-03 3.0015000000000009e+00
-1.4999999999999998e-03 3.0015000000000009e+00
ITEM: ATOMS id type x y z xs ys zs fx fy fz 
1 1       -0.0015000       -0.0015000       -0.0015000        0.0000000        0.0000000        0.0000000        0.0000000        0.0000000        0.0000000 
2 1        1.5000000        1.5000000       -0.0015000        0.5000000        0.5000000        0.0000000        0.0000000        0.0000000        0.0000000 
3 1        1.5000000       -0.0015000        1.5000000        0.5000000        0.0000000        0.5000000        0.0000000        0.0000000        0.0000000 
4 1       -0.0015000        1.5000000        1.5000000        0.0000000        0.5000000        0.5000000        0.0000000        0.0000000        0.0000000 
ITEM: TIMESTEP
20
ITEM: NUMBER OF ATOMS
4
ITEM: BOX BOUNDS pp pp pp
-2.9999999999999992e-03 3.0030000000000019e+00
-2.9999999999999992e-03 3.0030000000000019e+00
-2.9999999999999992e-03 3.0030000000000019e+00
ITEM: ATOMS id type x y z xs ys zs fx fy fz 
1 1       -0.0030000       -0.0030000       -0.0030000        0.0000000        0.0000000        0.0000000        0.0000000        0.0000000        0.0000000 
2 1        1.5000000        1.5000000       -0.0030000        0.5000000        0.5000000        0.0000000        0.0000000        0.0000000        0.0000000 
3 1        1.5000000       -0.0030000        1.5000000        0.5000000        0.0000000        0.5000000        0.0000000        0.0000000        0.0000000 
4 1       -0.0030000        1.5000000        1.5000000        0.0000000        0.5000000        0.5000000        0.0000000        0.0000000        0.0000000 
ITEM: TIMESTEP
30
ITEM: NUMBER OF ATOMS
4
ITEM: BOX BOUNDS pp pp pp
-4.4999999999999988e-03 3.0045000000000028e+00
-4.4999999999999988e-03 3.0045000000000028e+00
-4.4999999999999988e-03 3.0045000000000028e+00
ITEM: ATOMS id type x y z xs ys zs fx fy fz 
1 1       -0.0045000       -0.0045000       -0.0045000        0.0000000        0.0000000        0.0000000        0.0000000        0.0000000        0.0000000 
2 1        1.5000000        1.5000000       -0.0045000        0.5000000        0.5000000        0.0000000        0.0000000        0.0000000        0.0000000 
3 1        1.5000000       -0.0045000        1.5000000        0.5000000        0.0000000        0.5000000        0.0000000        0.0000000        0.0000000 
4 1       -0.0045000        1.5000000        1.5000000        0.0000000        0.5000000        0.5000000        0.0000000        0.0000000        0.0000000 
ITEM: TIMESTEP
40
ITEM: NUMBER OF ATOMS
4
ITEM: BOX BOUNDS pp pp pp
-5.9999999999999984e-03 3.0060000000000038e+00
-5.9999999999999984e-03 3.0060000000000038e+00
-5.9999999999999984e-03 3.0060000000000038e+00
ITEM: ATOMS id type x y z xs ys zs fx fy fz 
1 1       -0.0060000       -0.0060000       -0.0060000        0.0000000        0.0000000        0.0000000        0.0000000        0.0000000        0.0000000 
2 1        1.5000000        1.5000000       -0.0060000        0.5000000        0.5000000        0.0000000        0.0000000        0.0000000        0.0000000 
3 1        1.5000000       -0.0060000        1.5000000        0.5000000        0.0000000        0.5000000        0.0000000        0.0000000        0.0000000 
4 1       -0.0060000        1.5000000        1.5000000        0.0000000        0.5000000        0.5000000        0.0000000        0.0000000        0.0000000 
ITEM: TIMESTEP
50
ITEM: NUMBER OF ATOMS
4
ITEM: BOX BOUNDS pp pp pp
-7.4999999999999980e-03 3.0075000000000047e+00
-7.4999999999999980e-03 3.0075000000000047e+00
-7.4999999999999980e-03 3.0075000000000047e+00
ITEM: ATOMS id type x y z xs ys zs fx fy fz 
1 1       -0.0075000       -0.0075000       -0.0075000        0.0000000        0.0000000        0.0000000        0.0000000        0.0000000        0.0000000 
2 1        1.5000000        1.5000000       -0.0075000        0.5000000        0.5000000        0.0000000        0.0000000        0.0000000        0.0000000 
3 1        1.5000000       -0.0075000        1.5000000        0.5000000        0.0000000        0.5000000        0.0000000        0.0000000        0.0000000 
4 1       -0.0075000        1.5000000        1.5000000        0.0000000        0.5000000        0.5000000        0.0000000        0.0000000        0.0000000 
ITEM: TIMESTEP
60
ITEM: NUMBER OF ATOMS
4
ITEM: BOX BOUNDS pp pp pp
-8.9999999999999906e-03 3.0090000000000057e+00
-8.9999999999999906e-03 3.0090000000000057e+00
-8.9999999999999906e-03 3.0090000000000057e+00
ITEM: ATOMS id type x y z xs ys zs fx fy fz 
1 1       -0.0090000       -0.0090000       -0.0090000        0.0000000        0.0000000        0.0000000        0.0000000        0.0000000        0.0000000 
2 1        1.5000000        1.5000000       -0.0090000        0.5000000        0.5000000        0.0000000        0.0000000        0.0000000        0.0000000 
3 1        1.5000000       -0.0090000        1.5000000        0.5000000        0.0000000        0.5000000        0.0000000        0.0000000        0.0000000 
4 1       -0.0090000        1.5000000        1.5000000        0.0000000        0.5000000        0.5000000        0.0000000        0.0000000        0.0000000 
ITEM: TIMESTEP
70
ITEM: NUMBER OF ATOMS
4
ITEM: BOX BOUNDS pp pp pp
-1.0499999999999982e-02 3.0105000000000066e+00
-1.0499999999999982e-02 3.0105000000000066e+00
-1.0499999999999982e-02 3.0105000000000066e+00
ITEM: ATOMS id type x y z xs ys zs fx fy fz 
1 1       -0.0105000       -0.0105000       -0.0105000        0.0000000        0.0000000        0.0000000        0.0000000        0.0000000        0.0000000 
2 1        1.5000000        1.5000000       -0.0105000        0.5000000        0.5000000        0.0000000        0.0000000        0.0000000        0.0000000 
3 1        1.5000000       -0.0105000        1.5000000        0.5000000        0.0000000        0.5000000        0.0000000        0.0000000        0.0000000 
4 1       -0.0105000        1.5000000        1.5000000        0.0000000        0.5000000        0.5000000        0.0000000        0.0000000        0.0000000 
ITEM: TIMESTEP
80
ITEM: NUMBER OF ATOMS
4
ITEM: BOX BOUNDS pp pp pp
-1.1999999999999972e-02 3.0120000000000076e+00
-1.1999999999999972e-02 3.0120000000000076e+00
-1.1999999999999972e-02 3.0120000000000076e+00
ITEM: ATOMS id type x y z xs ys zs fx fy fz 
1 1       -0.0120000       -0.0120000       -0.0120000        0.0000000        0.0000000        0.0000000        0.0000000        0.0000000        0.0000000 
2 1        1.5000000        1.5000000       -0.0120000        0.5000000        0.5000000        0.0000000        0.0000000        0.0000000        0.0000000 
3 1        1.5000000       -0.0120000        1.5000000        0.5000000        0.0000000        0.5000000        0.0000000        0.0000000        0.0000000 
4 1       -0.0120000        1.5000000        1.5000000        0.0000000        0.5000000        0.5000000        0.0000000        0.0000000        0.0000000 
ITEM: TIMESTEP
90
ITEM: NUMBER OF ATOMS
4
ITEM: BOX BOUNDS pp pp pp
-1.3499999999999963e-02 3.0135000000000085e+00
-1.3499999999999963e-02 3.0135000000000085e+00
-1.3499999999999963e-02 3.0135000000000085e+00
ITEM: ATOMS id type x y z xs ys zs fx fy fz 
1 1       -0.0135000       -0.0135000       -0.0135000        0.0000000        0.0000000        0.0000000        0.0000000        0.0000000        0.0000000 
2 1        1.5000000        1.5000000       -0.0135000        0.5000000        0.5000000        0.0000000        0.0000000        0.0000000        0.0000000 
3 1        1.5000000       -0.0135000        1.5000000        0.5000000        0.0000000        0.5000000        0.0000000        0.0000000        0.0000000 
4 1       -0.0135000        1.5000000        1.5000000        0.0000000        0.5000000        0.5000000        0.0000000        0.0000000        0.0000000 
ITEM: TIMESTEP
100
ITEM: NUMBER OF ATOMS
4
ITEM: BOX BOUNDS pp pp pp
-1.4999999999999954e-02 3.0150000000000095e+00
-1.4999999999999954e-02 3.0150000000000095e+00
-1.4999999999999954e-02 3.0150000000000095e+00
ITEM: ATOMS id type x y z xs ys zs fx fy fz 
1 1       -0.0150000       -0.0150000       -0.0150000        0.0000000        0.0000000        0.0000000        0.0000000        0.0000000        0.0000000 
2 1        1.5000000        1.5000000       -0.0150000        0.5000000        0.5000000        0.0000000        0.0000000        0.0000000        0.0000000 
3 1        1.5000000       -0.0150000        1.5000000        0.5000000        0.0000000        0.5000000        0.0000000        0.0000000        0.0000000 
4 1       -0.0150000        1.5000000        1.5000000        0.0000000        0.5000000        0.5000000        0.0000000        0.0000000        0.0000000 
ITEM: TIMESTEP
110
ITEM: NUMBER OF ATOMS
4
ITEM: BOX BOUNDS pp pp pp
-1.6499999999999956e-02 3.0165000000000104e+00
-1.6499999999999956e-02 3.0165000000000104e+00
-1.6499999999999956e-02 3.0165000000000104e+00
ITEM: ATOMS id type x y z xs ys zs fx fy fz 
1 1       -0.0165000       -0.0165000       -0.0165000        0.0000000        0.0000000        0.0000000        0.0000000        0.0000000        0.0000000 
2 1        1.5000000        1.5000000       -0.0165000        0.5000000        0.5000000        0.0000000        0.0000000        0.0000000        0.0000000 
3 1        1.5000000       -0.0165000        1.5000000        0.5000000        0.0000000        0.5000000        0.0000000        0.0000000        0.0000000 
4 1       -0.0165000        1.5000000        1.5000000        0.0000000        0.5000000        0.5000000        0.0000000        0.0000000        0.0000000 
ITEM: TIMESTEP
120
ITEM: NUMBER OF ATOMS
4
ITEM: BOX BOUNDS pp pp pp
-1.7999999999999964e-02 3.0180000000000113e+00
-1.7999999999999964e-02 3.0180000000000113e+00
-1.7999999999999964e-02 3.0180000000000113e+00
ITEM: ATOMS id type x y z xs ys zs fx fy fz 
1 1       -0.0180000       -0.0180000       -0.0180000        0.0000000        0.0000000        0.0000000        0.0000000        0.0000000        0.0000000 
2 1        1.5000000        1.5000000       -0.0180000        0.5000000        0.5000000        0.0000000        0.0000000        0.0000000        0.0000000 
3 1        1.5000000       -0.0180000        1.5000000        0.5000000        0.0000000        0.5000000        0.0000000        0.0000000        0.0000000 
4 1       -0.0180000        1.5000000        1.5000000        0.0000000        0.5000000        0.5000000        0.0000000        0.0000000        0.0000000 
ITEM: TIMESTEP
130
ITEM: NUMBER OF ATOMS
4
ITEM: BOX BOUNDS pp pp pp
-1.9499999999999972e-02 3.0195000000000123e+00
-1.9499999999999972e-02 3.0195000000000123e+00
-1.9499999999999972e-02 3.0195000000000123e+00
ITEM: ATOMS id type x y z xs ys zs fx fy fz 
1 1       -0.0195000       -0.0195000       -0.0195000        0.0000000        0.0000000        0.0000000        0.0000000        0.0000000        0.0000000 
2 1        1.5000000        1.5000000       -0.0195000        0.5000000        0.5000000        0.0000000        0.0000000        0.0000000        0.0000000 
3 1        1.5000000       -0.0195000        1.5000000        0.5000000        0.0000000        0.5000000        0.0000000        0.0000000        0.0000000 
4 1       -0.0195000        1.5000000        1.5000000        0.0000000        0.5000000        0.5000000        0.0000000        0.0000000        0.0000000 
ITEM: TIMESTEP
140
ITEM: NUMBER OF ATOMS
4
ITEM: BOX BOUNDS pp pp pp
-2.0999999999999980e-02 3.0210000000000132e+00
-2.0999999999999980e-02 3.0210000000000132e+00
-2.0999999999999980e-02 3.0210000000000132e+00
ITEM: ATOMS id type x y z xs ys zs fx fy fz 
1 1       -0.0210000       -0.0210000       -0.0210000        0.0000000        0.0000000        0.0000000        0.0000000        0.0000000        0.0000000 
2 1        1.5000000        1.5000000       -0.0210000        0.5000000        0.5000000        0.0000000        0.0000000        0.0000000        0.0000000 
3 1        1.5000000       -0.0210000        1.5000000        0.5000000        0.0000000        0.5000000        0.0000000        0.0000000        0.0000000 
4 1       -0.0210000        1.5000000        1.5000000        0.0000000        0.5000000        0.5000000        0.0000000        0.0000000        0.0000000 
ITEM: TIMESTEP
150
ITEM: NUMBER OF ATOMS
4
ITEM: BOX BOUNDS pp pp pp
-2.2499999999999989e-02 3.0225000000000142e+00
-2.2499999999999989e-02 3.0225000000000142e+00
-2.2499999999999989e-02 3.0225000000000142e+00
ITEM: ATOMS id type x y z xs ys zs fx fy fz 
1 1       -0.0225000       -0.0225000       -0.0225000        0.0000000        0.0000000        0.0000000        0.0000000        0.0000000        0.0000000 
2 1        1.5000000        1.5000000       -0.0225000        0.5000000        0.5000000        0.0000000        0.0000000        0.0000000        0.0000000 
3 1        1.5000000       -0.0225000        1.5000000        0.5000000        0.0000000        0.5000000        0.0000000        0.0000000        0.0000000 
4 1       -0.0225000        1.5000000        1.5000000        0.0000000        0.5000000        0.5000000        0.0000000        0.0000000        0.0000000 
ITEM: TIMESTEP
160
ITEM: NUMBER OF ATOMS
4
ITEM: BOX BOUNDS pp pp pp
-2.3999999999999997e-02 3.0240000000000151e+00
-2.3999999999999997e-02 3.0240000000000151e+00
-2.3999999999999997e-02 3.0240000000000151e+00
ITEM: ATOMS id type x y z xs ys zs fx fy fz 
1 1       -0.0240000       -0.0240000       -0.0240000        0.0000000        0.0000000        0.0000000        0.0000000        0.0000000        0.0000000 
2 1        1.5000000        1.5000000       -0.0240000        0.5000000        0.5000000        0.0000000        0.0000000        0.0000000        0.0000000 
3 1        1.5000000       -0.0240000        1.5000000        0.5000000        0.0000000        0.5000000        0.0000000        0.0000000        0.0000000 
4 1       -0.0240000        1.5000000        1.5000000        0.0000000        0.5000000        0.5000000        0.0000000        0.0000000        0.0000000 
ITEM: TIMESTEP
170
ITEM: NUMBER OF ATOMS
4
ITEM: BOX BOUNDS pp pp pp
-2.5500000000000005e-02 3.0255000000000161e+00
-2.5500000000000005e-02 3.0255000000000161e+00
-2.5500000000000005e-02 3.0255000000000161e+00
ITEM: ATOMS id type x y z xs ys zs fx fy fz 
1 1       -0.0255000       -0.0255000       -0.0255000        0.0000000        0.0000000        0.0000000        0.0000000        0.0000000        0.0000000 
2 1        1.5000000        1.5000000       -0.0255000        0.5000000        0.5000000        0.0000000        0.0000000        0.0000000        0.0000000 
3 1        1.5000000       -0.0255000        1.5000000        0.5000000        0.0000000        0.5000000        0.0000000        0.0000000        0.0000000 
4 1       -0.0255000        1.5000000        1.5000000        0.0000000        0.5000000        0.5000000        0.0000000        0.0000000        0.0000000 
ITEM: TIMESTEP
180
ITEM: NUMBER OF ATOMS
4
ITEM: BOX BOUNDS pp pp pp
-2.7000000000000014e-02 3.0270000000000170e+00
-2.7000000000000014e-02 3.0270000000000170e+00
-2.7000000000000014e-02 3.0270000000000170e+00
ITEM: ATOMS id type x y z xs ys zs fx fy fz 
1 1       -0.0270000       -0.0270000       -0.0270000        0.0000000        0.0000000        0.0000000        0.0000000        0.0000000        0.0000000 
2 1        1.5000000        1.5000000       -0.0270000        0.5000000        0.5000000        0.0000000        0.0000000        0.0000000        0.0000000 
3 1        1.5000000       -0.0270000        1.5000000        0.5000000        0.0000000        0.5000000        0.0000000        0.0000000        0.0000000 
4 1       -0.0270000        1.5000000        1.5000000        0.0000000        0.5000000        0.5000000        0.0000000        0.0000000        0.0000000 
ITEM: TIMESTEP
190
ITEM: NUMBER OF ATOMS
4
ITEM: BOX BOUNDS pp pp pp
-2.8500000000000022e-02 3.0285000000000180e+00
-2.8500000000000022e-02 3.0285000000000180e+00
-2.8500000000000022e-02 3.0285000000000180e+00
ITEM: ATOMS id type x y z xs ys zs fx fy fz 
1 1       -0.0285000       -0.0285000       -0.0285000        0.0000000        0.0000000        0.0000000        0.0000000        0.0000000        0.0000000 
2 1        1.5000000        1.5000000       -0.0285000        0.5000000        0.5000000        0.0000000        0.0000000        0.0000000        0.0000000 
3 1        1.5000000       -0.0285000        1.5000000        0.5000000        0.0000000        0.5000000        0.0000000        0.0000000        0.0000000 
4 1       -0.0285000        1.5000000        1.5000000        0.0000000        0.5000000        0.5000000        0.0000000        0.0000000        0.0000000 
ITEM: TIMESTEP
200
ITEM: NUMBER OF ATOMS
4
ITEM: BOX BOUNDS pp pp pp
-3.0000000000000020e-02 3.0300000000000189e+00
-3.0000000000000020e-02 3.0300000000000189e+00
-3.0000000000000020e-02 3.0300000000000189e+00
ITEM: ATOMS id type x y z xs ys zs fx fy fz 
1 1       -0.0300000       -0.0300000       -0.0300000        0.0000000        0.0000000        0.0000000        0.0000000        0.0000000        0.0000000 
2 1        1.5000000        1.5000000       -0.0300000        0.5000000        0.5000000        0.0000000        0.0000000        0.0000000        0.0000000 
3 1        1.5000000       -0.0300000        1.5000000        0.5000000        0.0000000        0.5000000        0.0000000        0.0000000        0.0000000 
4 1       -0.0300000        1.5000000        1.5000000        0.0000000        0.5000000        0.5000000        0.0000000        0.0000000        0.0000000 
ITEM: TIMESTEP
210
ITEM: NUMBER OF ATOMS
4
ITEM: BOX BOUNDS pp pp pp
-3.1499999999999993e-02 3.0315000000000198e+00
-3.1499999999999993e-02 3.0315000000000198e+00
-3.1499999999999993e-02 3.0315000000000198e+00
ITEM: ATOMS id type x y z xs ys zs fx fy fz 
1 1       -0.0315000       -0.0315000       -0.0315000        0.0000000        0.0000000        0.0000000        0.0000000        0.0000000        0.0000000 
2 1        1.5000000        1.5000000       -0.0315000        0.5000000        0.5000000        0.0000000        0.0000000        0.0000000        0.0000000 
3 1        1.5000000       -0.0315000        1.5000000        0.5000000        0.0000000        0.5000000        0.0000000        0.0000000        0.0000000 
4 1       -0.0315000        1.5000000        1.5000000        0.0000000        0.5000000        0.5000000        0.0000000        0.0000000        0.0000000 
ITEM: TIMESTEP
220
ITEM: NUMBER OF ATOMS
4
ITEM: BOX BOUNDS pp pp pp
-3.2999999999999967e-02 3.0330000000000208e+00
-3.2999999999999967e-02 3.0330000000000208e+00
-3.2999999999999967e-02 3.0330000000000208e+00
ITEM: ATOMS id type x y z xs ys zs fx fy fz 
1 1       -0.0330000       -0.0330000       -0.0330000        0.0000000        0.0000000        0.0000000        0.0000000        0.0000000        0.0000000 
2 1        1.5000000        1.5000000       -0.0330000        0.5000000        0.5000000        0.0000000        0.0000000        0.0000000        0.0000000 
3 1        1.5000000       -0.0330000        1.5000000        0.5000000        0.0000000        0.5000000        0.0000000        0.0000000        0.0000000 
4 1       -0.0330000        1.5000000        1.5000000        0.0000000        0.5000000        0.5000000        0.0000000        0.0000000        0.0000000 
ITEM: TIMESTEP
230
ITEM: NUMBER OF ATOMS
4
ITEM: BOX BOUNDS pp pp pp
-3.4499999999999940e-02 3.0345000000000217e+00
-3.4499999999999940e-02 3.0345000000000217e+00
-3.4499999999999940e-02 3.0345000000000217e+00
ITEM: ATOMS id type x y z xs ys zs fx fy fz 
1 1       -0.0345000       -0.0345000       -0.0345000        0.0000000        0.0000000        0.0000000        0.0000000        0.0000000        0.0000000 
2 1        1.5000000        1.5000000       -0.0345000        0.5000000        0.5000000        0.0000000        0.0000000        0.0000000        0.0000000 
3 1        1.5000000       -0.0345000        1.5000000        0.5000000        0.0000000        0.5000000        0.0000000        0.0000000        0.0000000 
4 1       -0.0345000        1.5000000        1.5000000        0.0000000        0.5000000        0.5000000        0.0000000        0.0000000        0.0000000 
ITEM: TIMESTEP
240
ITEM: NUMBER OF ATOMS
4
ITEM: BOX BOUNDS pp pp pp
-3.5999999999999914e-02 3.0360000000000227e+00
-3.5999999999999914e-02 3.0360000000000227e+00
-3.5999999999999914e-02 3.0360000000000227e+00
ITEM: ATOMS id type x y z xs ys zs fx fy fz 
1 1       -0.0360000       -0.0360000       -0.0360000        0.0000000        0.0000000        0.0000000        0.0000000        0.0000000        0.0000000 
2 1        1.5000000        1.5000000       -0.0360000        0.5000000        0.5000000        0.0000000        0.0000000        0.0000000        0.0000000 
3 1        1.5000000       -0.0360000        1.5000000        0.5000000        0.0000000        0.5000000        0.0000000        0.0000000        0.0000000 
4 1       -0.0360000        1.5000000        1.5000000        0.0000000        0.5000000        0.5000000        0.0000000        0.0000000        0.0000000 
ITEM: TIMESTEP
250
ITEM: NUMBER OF ATOMS
4
ITEM: BOX BOUNDS pp pp pp
-3.7499999999999888e-02 3.0375000000000236e+00
-3.7499999999999888e-02 3.0375000000000236e+00
-3.7499999999999888e-02 3.0375000000000236e+00
ITEM: ATOMS id type x y z xs ys zs fx fy fz 
1 1       -0.0375000       -0.0375000       -0.0375000        0.0000000        0.0000000        0.0000000        0.0000000        0.0000000        0.0000000 
2 1        1.5000000        1.5000000       -0.0375000        0.5000000        0.5000000        0.0000000        0.0000000        0.0000000        0.0000000 
3 1        1.5000000       -0.0375000        1.5000000        0.5000000        0.0000000        0.5000000        0.0000000        0.0000000        0.0000000 
4 1       -0.0375000        1.5000000        1.5000000        0.0000000        0.5000000        0.5000000        0.0000000        0.0000000        0.0000000 
ITEM: TIMESTEP
260
ITEM: NUMBER OF ATOMS
4
ITEM: BOX BOUNDS pp pp pp
-3.8999999999999861e-02 3.0390000000000246e+00
-3.8999999999999861e-02 3.0390000000000246e+00
-3.8999999999999861e-02 3.0390000000000246e+00
ITEM: ATOMS id type x y z xs ys zs fx fy fz 
1 1       -0.0390000       -0.0390000       -0.0390000        0.0000000        0.0000000        0.0000000        0.0000000        0.0000000        0.0000000 
2 1        1.5000000        1.5000000       -0.0390000        0.5000000        0.5000000        0.0000000        0.0000000        0.0000000        0.0000000 
3 1        1.5000000       -0.0390000        1.5000000        0.5000000        0.0000000        0.5000000        0.0000000        0.0000000        0.0000000 
4 1       -0.0390000        1.5000000        1.5000000        0.0000000        0.5000000        0.5000000        0.0000000        0.0000000        0.0000000 
ITEM: TIMESTEP
270
ITEM: NUMBER OF ATOMS
4
ITEM: BOX BOUNDS pp pp pp
-4.0499999999999835e-02 3.0405000000000255e+00
-4.0499999999999835e-02 3.0405000000000255e+00
-4.0499999999999835e-02 3.0405000000000255e+00
ITEM: ATOMS id type x y z xs ys zs fx fy fz 
1 1       -0.0405000       -0.0405000       -0.0405000        0.0000000        0.0000000        0.0000000        0.0000000        0.0000000        0.0000000 
2 1        1.5000000        1.5000000       -0.0405000        0.5000000        0.5000000        0.0000000        0.0000000        0.0000000        0.0000000 
3 1        1.5000000       -0.0405000        1.5000000        0.5000000        0.0000000        0.5000000        0.0000000        0.0000000        0.0000000 
4 1       -0.0405000        1.5000000        1.5000000        0.0000000        0.5000000        0.5000000        0.0000000        0.0000000        0.0000000 
ITEM: TIMESTEP
280
ITEM: NUMBER OF ATOMS
4
ITEM: BOX BOUNDS pp pp pp
-4.1999999999999808e-02 3.0420000000000265e+00
-4.1999999999999808e-02 3.0420000000000265e+00
-4.1999999999999808e-02 3.0420000000000265e+00
ITEM: ATOMS id type x y z xs ys zs fx fy fz 
1 1       -0.0420000       -0.0420000       -0.0420000        0.0000000        0.0000000        0.0000000        0.0000000        0.0000000        0.0000000 
2 1        1.5000000        1.5000000       -0.0420000        0.5000000        0.5000000        0.0000000        0.0000000        0.0000000        0.0000000 
3 1        1.5000000       -0.0420000        1.5000000        0.5000000        0.0000000        0.5000000        0.0000000        0.0000000        0.0000000 
4 1       -0.0420000        1.5000000        1.5000000        0.0000000        0.5000000        0.5000000        0.0000000        0.0000000        0.0000000 
ITEM: TIMESTEP
290
ITEM: NUMBER OF ATOMS
4
ITEM: BOX BOUNDS pp pp pp
-4.3499999999999782e-02 3.0435000000000274e+00
-4.3499999999999782e-02 3.0435000000000274e+00
-4.3499999999999782e-02 3.0435000000000274e+00
ITEM: ATOMS id type x y z xs ys zs fx fy fz 
1 1       -0.0435000       -0.0435000       -0.0435000        0.0000000        0.0000000        0.0000000        0.0000000        0.0000000        0.0000000 
2 1        1.5000000        1.5000000       -0.0435000        0.5000000        0.5000000        0.0000000        0.0000000        0.0000000        0.0000000 
3 1        1.5000000       -0.0435000        1.5000000        0.5000000        0.0000000        0.5000000        0.0000000        0.0000000        0.0000000 
4 1       -0.0435000        1.5000000        1.5000000        0.0000000        0.5000000        0.5000000        0.0000000        0.0000000        0.0000000 
ITEM: TIMESTEP
300
ITEM: NUMBER OF ATOMS
4
ITEM: BOX BOUNDS pp pp pp
-4.4999999999999755e-02 3.0450000000000284e+00
-4.4999999999999755e-02 3.0450000000000284e+00
-4.4999999999999755e-02 3.0450000000000284e+00
ITEM: ATOMS id type x y z xs ys zs fx fy fz 
1 1       -0.0450000       -0.0450000       -0.0450000        0.0000000        0.0000000        0.0000000        0.0000000        0.0000000        0.0000000 
2 1        1.5000000        1.5000000       -0.0450000        0.5000000        0.5000000        0.0000000        0.0000000        0.0000000        0.0000000 
3 1        1.5000000       -0.0450000        1.5000000        0.5000000        0.0000000        0.5000000        0.0000000        0.0000000        0.0000000 
4 1       -0.0450000        1.5000000        1.5000000        0.0000000        0.5000000        0.5000000        0.0000000        0.0000000        0.0000000 
ITEM: TIMESTEP
310
ITEM: NUMBER OF ATOMS
4
ITEM: BOX BOUNDS pp pp pp
-4.6499999999999729e-02 3.0465000000000293e+00
-4.6499999999999729e-02 3.0465000000000293e+00
-4.6499999999999729e-02 3.0465000000000293e+00
ITEM: ATOMS id type x y z xs ys zs fx fy fz 
1 1       -0.0465000       -0.0465000       -0.0465000        0.0000000        0.0000000        0.0000000        0.0000000        0.0000000        0.0000000 
2 1        1.5000000        1.5000000       -0.0465000        0.5000000        0.5000000        0.0000000        0.0000000        0.0000000        0.0000000 
3 1        1.5000000       -0.0465000        1.5000000        0.5000000        0.0000000        0.5000000        0.0000000        0.0000000        0.0000000 
4 1       -0.0465000        1.5000000        1.5000000        0.0000000        0.5000000        0.5000000        0.0000000        0.0000000        0.0000000 
ITEM: TIMESTEP
320
ITEM: NUMBER OF ATOMS
4
ITEM: BOX BOUNDS pp pp pp
-4.7999999999999703e-02 3.0480000000000302e+00
-4.7999999999999703e-02 3.0480000000000302e+00
-4.7999999999999703e-02 3.0480000000000302e+00
ITEM: ATOMS id type x y z xs ys zs fx fy fz 
1 1       -0.0480000       -0.0480000       -0.0480000        0.0000000        0.0000000        0.0000000        0.0000000        0.0000000        0.0000000 
2 1        1.5000000        1.5000000       -0.0480000        0.5000000        0.5000000        0.0000000        0.0000000        0.0000000        0.0000000 
3 1        1.5000000       -0.0480000        1.5000000        0.5000000        0.0000000        0.5000000        0.0000000        0.0000000        0.0000000 
4 1       -0.0480000        1.5000000        1.5000000        0.0000000        0.5000000        0.5000000        0.0000000        0.0000000        0.0000000 
ITEM: TIMESTEP
330
ITEM: NUMBER OF ATOMS
4
ITEM: BOX BOUNDS pp pp pp
-4.9499999999999676e-02 3.0495000000000312e+00
-4.9499999999999676e-02 3.0495000000000312e+00
-4.9499999999999676e-02 3.0495000000000312e+00
ITEM: ATOMS id type x y z xs ys zs fx fy fz 
1 1       -0.0495000       -0.0495000       -0.0495000        0.0000000        0.0000000        0.0000000        0.0000000        0.0000000        0.0000000 
2 1        1.5000000        1.5000000       -0.0495000        0.5000000        0.5000000        0.0000000        0.0000000        0.0000000        0.0000000 
3 1        1.5000000       -0.0495000        1.5000000        0.5000000        0.0000000        0.5000000        0.0000000        0.0000000        0.0000000 