LAMMPS (12 Dec 2018)
Lattice spacing in x,y,z = 5.355 5.355 5.355
Created orthogonal box = (0 0 0) to (5.355 5.355 5.355)
  1 by 1 by 1 MPI processor grid
Created 4 atoms
  Time spent = 0.000389814 secs
WARNING: No fixes defined, atoms won't move (../verlet.cpp:55)
* Error: at line 1037 in ../pair_kim.cpp
	Message: KIM initialization failed
	KIM_STATUS_MSG: unsuccessful completion
ERROR: Internal KIM error (../pair_kim.cpp:1037)
Last command: run 0
